<?xml version="1.0"?>
<VTKFile type="UnstructuredGrid" version="0.1" byte_order="LittleEndian">
<UnstructuredGrid>
<Piece NumberOfPoints="1056" NumberOfCells="1024">
<Points>
<DataArray type="Float64" NumberOfComponents="3" format="ascii">
-0.146776 0 0
-0.146776 2.2229e-06 0
-0.146776 4.36037e-06 0
-0.146775 6.33027e-06 0
-0.146774 8.0569e-06 0
-0.146773 9.47391e-06 0
-0.146772 1.05268e-05 0
-0.14677 1.11752e-05 0
-0.146769 1.13942e-05 0
-0.146767 1.11752e-05 0
-0.146766 1.05268e-05 0
-0.146765 9.47389e-06 0
-0.146764 8.05687e-06 0
-0.146763 6.33024e-06 0
-0.146762 4.36035e-06 0
-0.146762 2.22289e-06 0
-0.146761 1.39538e-21 0
-0.146762 -2.22289e-06 0
-0.146762 -4.36035e-06 0
-0.146763 -6.33024e-06 0
-0.146764 -8.05687e-06 0
-0.146765 -9.47389e-06 0
-0.146766 -1.05268e-05 0
-0.146767 -1.11752e-05 0
-0.146769 -1.13942e-05 0
-0.14677 -1.11752e-05 0
-0.146772 -1.05268e-05 0
-0.146773 -9.47391e-06 0
-0.146774 -8.0569e-06 0
-0.146775 -6.33027e-06 0
-0.146776 -4.36037e-06 0
-0.146776 -2.2229e-06 0
-0.17658 0 0
-0.17601 0.0091163 0
-0.17432 0.0178727 0
-0.171574 0.0259246 0
-0.167875 0.0329572 0
-0.163363 0.0386984 0
-0.158207 0.0429296 0
-0.152605 0.0454935 0
-0.146769 0.0462998 0
-0.140923 0.045327 0
-0.135293 0.042622 0
-0.130096 0.0382965 0
-0.125534 0.0325222 0
-0.121786 0.0255227 0
-0.118998 0.0175651 0
-0.11728 0.00894982 0
-0.1167 5.61709e-18 0
-0.11728 -0.00894982 0
-0.118998 -0.0175651 0
-0.121786 -0.0255227 0
-0.125534 -0.0325222 0
-0.130096 -0.0382965 0
-0.135293 -0.042622 0
-0.140923 -0.045327 0
-0.146769 -0.0462998 0
-0.152605 -0.0454935 0
-0.158207 -0.0429296 0
-0.163363 -0.0386984 0
-0.167875 -0.0329572 0
-0.171574 -0.0259246 0
-0.17432 -0.0178727 0
-0.17601 -0.0091163 0
-0.206134 0 0
-0.205002 0.0183993 0
-0.20165 0.0360529 0
-0.196199 0.0522498 0
-0.18885 0.0663459 0
-0.179874 0.0777925 0
-0.169606 0.0861578 0
-0.15843 0.0911427 0
-0.146769 0.0925882 0
-0.135069 0.090477 0
-0.123781 0.0849277 0
-0.113346 0.0761852 0
-0.104173 0.0646062 0
-0.0966266 0.0506424 0
-0.0910085 0.0348226 0
-0.0875442 0.0177335 0
-0.0863737 1.11279e-17 0
-0.0875442 -0.0177335 0
-0.0910085 -0.0348226 0
-0.0966266 -0.0506424 0
-0.104173 -0.0646062 0
-0.113346 -0.0761852 0
-0.123781 -0.0849277 0
-0.135069 -0.090477 0
-0.146769 -0.0925882 0
-0.15843 -0.0911427 0
-0.169606 -0.0861578 0
-0.179874 -0.0777925 0
-0.18885 -0.0663459 0
-0.196199 -0.0522498 0
-0.20165 -0.0360529 0
-0.205002 -0.0183993 0
-0.235442 0 0
-0.233759 0.0278539 0
-0.22877 0.0545495 0
-0.220653 0.0789871 0
-0.2097 0.100179 0
-0.196308 0.117295 0
-0.180967 0.129697 0
-0.164245 0.136959 0
-0.146769 0.138877 0
-0.129205 0.135462 0
-0.112231 0.12693 0
-0.0965142 0.113679 0
-0.0826785 0.0962645 0
-0.0712818 0.0753703 0
-0.0627885 0.0517811 0
-0.0575478 0.0263556 0
-0.0557764 1.65353e-17 0
-0.0575478 -0.0263556 0
-0.0627885 -0.0517811 0
-0.0712818 -0.0753703 0
-0.0826785 -0.0962645 0
-0.0965142 -0.113679 0
-0.112231 -0.12693 0
-0.129205 -0.135462 0
-0.146769 -0.138877 0
-0.164245 -0.136959 0
-0.180967 -0.129697 0
-0.196308 -0.117295 0
-0.2097 -0.100179 0
-0.220653 -0.0789871 0
-0.22877 -0.0545495 0
-0.233759 -0.0278539 0
-0.264512 0 0
-0.262286 0.0374827 0
-0.255685 0.0733673 0
-0.24494 0.106142 0
-0.230429 0.134462 0
-0.212666 0.15721 0
-0.192292 0.17355 0
-0.17005 0.182944 0
-0.146769 0.185165 0
-0.123331 0.180281 0
-0.100643 0.168629 0
-0.0795996 0.150781 0
-0.0610479 0.127502 0
-0.0457468 0.0997111 0
-0.034332 0.0684446 0
-0.0272836 0.0348183 0
-0.0249003 2.18409e-17 0
-0.0272836 -0.0348183 0
-0.034332 -0.0684446 0
-0.0457468 -0.0997111 0
-0.0610479 -0.127502 0
-0.0795996 -0.150781 0
-0.100643 -0.168629 0
-0.123331 -0.180281 0
-0.146769 -0.185165 0
-0.17005 -0.182944 0
-0.192292 -0.17355 0
-0.212666 -0.15721 0
-0.230429 -0.134462 0
-0.24494 -0.106142 0
-0.255685 -0.0733673 0
-0.262286 -0.0374827 0
-0.293348 0 0
-0.290588 0.0472886 0
-0.2824 0.092511 0
-0.269063 0.133721 0
-0.251037 0.169199 0
-0.228949 0.197541 0
-0.20358 0.217717 0
-0.175846 0.229097 0
-0.146769 0.231453 0
-0.117447 0.224936 0
-0.0890147 0.210029 0
-0.0626007 0.187494 0
-0.0392786 0.158322 0
-0.0200174 0.123669 0
-0.00563307 0.0848168 0
0.00325566 0.043124 0
0.00626237 2.7046e-17 0
0.00325566 -0.043124 0
-0.00563307 -0.0848168 0
-0.0200174 -0.123669 0
-0.0392786 -0.158322 0
-0.0626007 -0.187494 0
-0.0890147 -0.210029 0
-0.117447 -0.224936 0
-0.146769 -0.231453 0
-0.175846 -0.229097 0
-0.20358 -0.217717 0
-0.228949 -0.197541 0
-0.251037 -0.169199 0
-0.269063 -0.133721 0
-0.2824 -0.092511 0
-0.290588 -0.0472886 0
-0.321958 0 0
-0.350345 0 0
-0.378515 0 0
-0.406473 0 0
-0.434223 0 0
-0.46177 0 0
-0.489119 0 0
-0.516274 0 0
-0.543238 0 0
-0.570016 0 0
-0.596612 0 0
-0.623029 0 0
-0.649271 0 0
-0.67534 0 0
-0.701242 0 0
-0.726978 0 0
-0.752552 0 0
-0.777967 0 0
-0.803226 0 0
-0.828332 0 0
-0.853287 0 0
-0.878094 0 0
-0.902756 0 0
-0.927275 0 0
-0.951654 0 0
-0.975895 0 0
-1 0 0
-0.318671 0.0572745 0
-0.346539 0.0674433 0
-0.374198 0.0777982 0
-0.401653 0.0883423 0
-0.428906 0.0990789 0
-0.455964 0.110011 0
-0.48283 0.121143 0
-0.509509 0.132478 0
-0.536003 0.14402 0
-0.562317 0.155772 0
-0.588455 0.167739 0
-0.614419 0.179925 0
-0.640214 0.192333 0
-0.665842 0.204968 0
-0.691308 0.217836 0
-0.716613 0.230939 0
-0.741761 0.244284 0
-0.766755 0.257875 0
-0.791597 0.271716 0
-0.816291 0.285815 0
-0.840838 0.300175 0
-0.865242 0.314802 0
-0.889505 0.329702 0
-0.91363 0.344882 0
-0.937618 0.360347 0
-0.961472 0.376103 0
-0.985194 0.392157 0
-0.308919 0.111986 0
-0.335246 0.131796 0
-0.361385 0.151949 0
-0.387341 0.172448 0
-0.413117 0.193299 0
-0.438717 0.214509 0
-0.464145 0.236084 0
-0.489403 0.258028 0
-0.514495 0.28035 0
-0.539425 0.303055 0
-0.564196 0.32615 0
-0.58881 0.349642 0
-0.61327 0.373538 0
-0.63758 0.397845 0
-0.661742 0.422571 0
-0.685759 0.447725 0
-0.709633 0.473313 0
-0.733366 0.499344 0
-0.756963 0.525826 0
-0.780423 0.552769 0
-0.803751 0.580181 0
-0.826948 0.608071 0
-0.850016 0.63645 0
-0.872958 0.665327 0
-0.895775 0.694712 0
-0.91847 0.724615 0
-0.941045 0.755048 0
-0.293026 0.161728 0
-0.316832 0.190171 0
-0.340483 0.219055 0
-0.363983 0.248386 0
-0.387334 0.278171 0
-0.41054 0.308417 0
-0.433603 0.33913 0
-0.456526 0.370318 0
-0.479311 0.401987 0
-0.50196 0.434146 0
-0.524477 0.4668 0
-0.546862 0.499959 0
-0.56912 0.533631 0
-0.591251 0.567823 0
-0.613258 0.602544 0
-0.635143 0.637802 0
-0.656908 0.673607 0
-0.678555 0.709967 0
-0.700086 0.746892 0
-0.721502 0.784392 0
-0.742806 0.822476 0
-0.763999 0.861155 0
-0.785083 0.900438 0
-0.80606 0.940337 0
-0.826931 0.980862 0
-0.847698 1.02203 0
-0.868362 1.06384 0
-0.271528 0.204396 0
-0.291903 0.240058 0
-0.312164 0.27619 0
-0.332313 0.312799 0
-0.352352 0.34989 0
-0.372282 0.387469 0
-0.392106 0.425541 0
-0.411825 0.464114 0
-0.431441 0.503193 0
-0.450955 0.542785 0
-0.470369 0.582896 0
-0.489684 0.623533 0
-0.508903 0.664703 0
-0.528025 0.706413 0
-0.547054 0.74867 0
-0.565989 0.791482 0
-0.584833 0.834857 0
-0.603587 0.8788 0
-0.622252 0.923322 0
-0.640829 0.968429 0
-0.65932 1.01413 0
-0.677725 1.06043 0
-0.696047 1.10735 0
-0.714285 1.15488 0
-0.732442 1.20305 0
-0.750518 1.25185 0
-0.768515 1.3013 0
-0.245158 0.238291 0
-0.261293 0.279465 0
-0.277357 0.321066 0
-0.293349 0.363099 0
-0.309271 0.405566 0
-0.325124 0.448473 0
-0.340909 0.491823 0
-0.356626 0.53562 0
-0.372276 0.57987 0
-0.38786 0.624575 0
-0.40338 0.669742 0
-0.418835 0.715374 0
-0.434227 0.761475 0
-0.449556 0.808051 0
-0.464824 0.855107 0
-0.48003 0.902647 0
-0.495176 0.950676 0
-0.510262 0.999199 0
-0.525289 1.04822 0
-0.540258 1.09775 0
-0.55517 1.14779 0
-0.570024 1.19834 0
-0.584822 1.24941 0
-0.599564 1.30101 0
-0.614252 1.35314 0
-0.628884 1.40581 0
-0.643463 1.45903 0
-0.214833 0.262201 0
-0.22605 0.307003 0
-0.237231 0.352126 0
-0.248378 0.397572 0
-0.25949 0.443343 0
-0.270568 0.48944 0
-0.281612 0.535865 0
-0.292623 0.582622 0
-0.3036 0.629712 0
-0.314544 0.677136 0
-0.325455 0.724898 0
-0.336334 0.772999 0
-0.347181 0.821442 0
-0.357995 0.870229 0
-0.368779 0.919361 0
-0.379531 0.968843 0
-0.390251 1.01867 0
-0.400941 1.06886 0
-0.411601 1.1194 0
-0.42223 1.1703 0
-0.43283 1.22156 0
-0.443399 1.27318 0
-0.453939 1.32517 0
-0.46445 1.37752 0
-0.474932 1.43025 0
-0.485385 1.48335 0
-0.495809 1.53682 0
-0.181632 0.275418 0
-0.187409 0.32191 0
-0.193176 0.368571 0
-0.198934 0.415402 0
-0.204683 0.462405 0
-0.210422 0.509579 0
-0.216152 0.556925 0
-0.221872 0.604444 0
-0.227584 0.652136 0
-0.233286 0.700002 0
-0.238979 0.748041 0
-0.244663 0.796256 0
-0.250339 0.844646 0
-0.256005 0.893212 0
-0.261662 0.941954 0
-0.26731 0.990873 0
-0.27295 1.03997 0
-0.278581 1.08924 0
-0.284202 1.1387 0
-0.289816 1.18833 0
-0.29542 1.23814 0
-0.301016 1.28814 0
-0.306603 1.33831 0
-0.312182 1.38867 0
-0.317752 1.43921 0
-0.323314 1.48993 0
-0.328867 1.54083 0
-0.146769 0.277742 0
-0.146769 0.32403 0
-0.146769 0.370319 0
-0.146769 0.416607 0
-0.146769 0.462896 0
-0.146769 0.509184 0
-0.146769 0.555472 0
-0.146769 0.601761 0
-0.146769 0.648049 0
-0.146769 0.694338 0
-0.146769 0.740626 0
-0.146769 0.786915 0
-0.146769 0.833203 0
-0.146769 0.879491 0
-0.146769 0.92578 0
-0.146769 0.972068 0
-0.146769 1.01836 0
-0.146769 1.06465 0
-0.146769 1.11093 0
-0.146769 1.15722 0
-0.146769 1.20351 0
-0.146769 1.2498 0
-0.146769 1.29609 0
-0.146769 1.34238 0
-0.146769 1.38866 0
-0.146769 1.43495 0
-0.146769 1.48124 0
-0.111553 0.269428 0
-0.105649 0.313755 0
-0.0997343 0.35792 0
-0.0938097 0.401922 0
-0.0878749 0.445763 0
-0.0819298 0.489441 0
-0.0759744 0.532959 0
-0.0700085 0.576315 0
-0.0640321 0.619512 0
-0.0580452 0.662549 0
-0.0520477 0.705426 0
-0.0460396 0.748145 0
-0.0400208 0.790705 0
-0.0339912 0.833107 0
-0.0279508 0.875352 0
-0.0218995 0.917439 0
-0.0158373 0.95937 0
-0.00976411 1.00114 0
-0.00367985 1.04276 0
0.00241552 1.08423 0
0.00852206 1.12553 0
0.0146398 1.16669 0
0.0207689 1.20769 0
0.0269094 1.24853 0
0.0330612 1.28923 0
0.0392246 1.32976 0
0.0453995 1.37015 0
-0.0773471 0.251129 0
-0.0656394 0.291932 0
-0.0538913 0.33244 0
-0.0421023 0.372655 0
[...]
<PointData Scalars="FunctionValues">
<DataArray type="Float32" Name="FunctionValues" format="ascii">2.49447e-16
4.66309e-07
9.93592e-07
1.52337e-06
1.91635e-06
2.0519e-06
1.88313e-06
1.443e-06
8.25802e-07
1.5991e-07
4.21769e-07
8.10782e-07
9.49372e-07
8.49188e-07
5.91041e-07
2.86352e-07
2.49355e-16
2.86352e-07
5.91041e-07
8.49188e-07
9.49372e-07
8.10782e-07
4.21769e-07
1.5991e-07
8.25802e-07
1.443e-06
1.88313e-06
2.0519e-06
1.91635e-06
1.52337e-06
9.93592e-07
4.66309e-07
2.53876e-16
0.000285481
0.000496019
0.000593797
0.000604894
0.000598191
0.000629517
0.000698842
0.000747432
0.000691301
0.000470798
9.33597e-05
0.000348489
0.000694929
0.000777787
0.000515231
5.14139e-17
0.000515231
0.000777787
0.000694929
0.000348489
9.33597e-05
0.000470798
0.000691301
0.000747432
0.000698842
0.000629517
0.000598191
0.000604894
0.000593797
0.000496019
0.000285481
3.10369e-16
0.00118764
0.0016717
0.00127782
0.000369394
0.000510003
0.000986607
0.00100088
0.000754929
0.000556395
0.000648332
0.00108591
0.00169669
0.00213984
0.00205709
0.00128043
6.89261e-17
0.00128043
0.00205709
0.00213984
0.00169669
0.00108591
0.000648332
0.000556395
0.000754929
0.00100088
0.000986607
0.000510003
0.000369394
0.00127782
0.0016717
0.00118764
3.87516e-16
0.00272281
0.00340903
0.00184674
0.000715043
0.00288284
0.00393586
0.00389752
0.00323817
0.00254645
0.00227281
0.00254695
0.00311466
0.00346233
0.00310062
0.001855
9.91643e-17
0.001855
0.00310062
0.00346233
0.00311466
0.00254695
0.00227281
0.00254645
0.00323817
0.00389752
0.00393586
0.00288284
0.000715043
0.00184674
0.00340903
0.00272281
4.9423e-16
0.0047678
0.00534496
0.0018733
0.00274374
0.00606799
0.00734741
0.00700068
0.00581957
0.00458412
0.00390158
0.00396923
0.00440145
0.00447032
0.00367498
0.00205698
5.60054e-17
0.00205698
0.00367498
0.00447032
0.00440145
0.00396923
0.00390158
0.00458412
0.00581957
0.00700068
0.00734741
0.00606799
0.00274374
0.0018733
0.00534496
0.0047678
5.90234e-16
0.00712278
0.00705978
0.000995664
0.00563487
0.0094611
0.0103475
0.0094627
0.00780329
0.00612033
0.00514251
0.00516789
0.00554681
0.00517119
0.00369673
0.00178203
1.23244e-17
0.00178203
0.00369673
0.00517119
0.00554681
0.00516789
0.00514251
0.00612033
0.00780329
0.0094627
0.0103475
0.0094611
0.00563487
0.000995664
0.00705978
0.00712278
7.0329e-16
8.02953e-16
8.92902e-16
9.90009e-16
1.08478e-15
1.20248e-15
1.31492e-15
1.46237e-15
1.5928e-15
1.69656e-15
1.77636e-15
1.83471e-15
1.86828e-15
1.89321e-15
1.90213e-15
1.89532e-15
1.87324e-15
1.83683e-15
1.78199e-15
1.70708e-15
1.59474e-15
1.4259e-15
1.19337e-15
9.00207e-16
5.69801e-16
2.48124e-16
0
0.00952674
0.0116723
0.0132285
0.0138723
0.0133254
0.0113918
0.00799147
0.003182
0.00283382
0.00971952
0.0170356
0.0242879
0.0309883
0.0367223
0.0412127
0.0443699
0.0463111
0.0472895
0.0473209
0.0456053
0.0419876
0.0373038
0.0316577
0.0248758
0.0169391
0.00828032
0
0.00817173
0.0084105
0.00767358
0.00606002
0.0038764
0.00161149
0.000119936
0.000659661
0.000594264
0.00408366
0.00999812
0.0182112
0.0282598
0.0393779
0.0505863
0.0608361
0.0691883
0.074999
0.077958
0.0774916
0.0725766
0.0633245
0.0506788
0.0360379
0.021262
0.0085778
0
0.000955791
0.00389158
0.00745141
0.0110471
0.0139536
0.0154331
0.0148731
0.0119122
0.00653043
0.000916656
0.00973339
0.0189882
0.0276742
0.0349008
0.0400784
0.0430571
0.0441759
0.0441388
0.0433673
0.0405744
0.0348527
0.0281687
0.0218003
0.0158721
0.0100989
0.00448955
0
0.00909176
0.0126345
0.0156786
0.0176434
0.0180697
0.0167232
0.0136623
0.00925436
0.00413296
0.0009002
0.00501148
0.00748416
0.00784816
0.00596062
0.00201688
0.00351083
0.00999041
0.0168054
0.0237723
0.0314487
0.0381435
0.0403711
0.03701
0.0287328
0.0174889
0.00664558
0
0.0124148
0.0143674
0.0149545
0.0140795
0.0119328
0.00895341
0.00574039
0.0029324
0.00107814
0.00052565
0.00135475
0.00336858
0.00614716
0.00915002
0.0118397
0.0137875
0.0147281
0.0146018
0.0138621
0.0136055
0.0126057
0.00910528
0.00423281
2.31033e-05
0.00195756
0.00149177
0
0.0122472
0.0126728
0.0116149
0.00939501
0.00656573
0.00376772
0.00157621
0.000369212
0.000245209
0.00100752
0.00221802
0.00330755
0.00371673
0.00303228
0.00108271
0.00203391
0.00599071
0.0102515
0.0137343
0.0145741
0.0132171
0.0112751
0.00859
0.00518968
0.00203513
0.00031558
0
0.0107349
0.0106264
0.00927201
0.00703545
0.00438169
0.00175078
0.000539692
0.00234581
0.0036959
0.00474271
0.00568519
0.00668258
0.00778473
0.00889895
0.00980493
0.0102174
0.00987944
0.00864042
0.00642788
0.00334188
0.000422872
0.00132456
0.0017284
0.0010806
0.000100621
0.000348899
0
0.00876082
0.00854056
0.00722206
0.00504198
0.00231482
0.000635562
0.00352473
0.00613439
0.00831893
0.00999676
0.0111322
0.0117135
0.0117307
0.0111569
0.00993445
0.00796656
0.00512414
0.00131734
0.00315101
0.00705277
0.00978292
0.0115167
0.0115629
0.00942014
0.00562476
0.00187497
0
0.00677622
0.00635721
0.00484812
0.00239362
0.000733241
0.00417301
0.00753011
0.0104279
0.0125624
0.0137476
0.0139451
0.0132702
0.011973
0.0103921
0.0088835
0.0077307
0.0070476
0.00674255
0.00684777
0.00809049
0.0096136
0.00935945
0.00724905
0.00422915
0.00146876
2.4796e-05
0
0.00569626
0.00537611
0.00412486
0.00201726
0.000756058
0.00392135
0.00716607
0.0101871
0.0127348
0.0146473
0.0158684
0.0164503
0.0165393
0.0163477
0.016115
0.0160592
0.016324
0.0169651
0.0182132
0.0208916
0.0242085
0.0256393
0.0240102
0.0192845
0.0123163
0.00504304
0
0.00602795
0.00649666
0.00658353
0.00635462
0.00591845
0.00540554
0.00494611
0.00465028
0.00459435
0.00481499
0.00531163
0.00605556
0.00700365
0.00811357
0.00935761
0.0107307
0.0122406
0.0138286
0.0150395
0.0147519
0.0130087
0.0108325
0.00848186
0.00602523
0.00362707
0.00153922
0
0.006616
0.00770431
0.00891381
0.0103404
0.0120661
0.0141542
0.0166455
0.0195551
0.0228693
0.0265422
0.0304941
0.0346115
0.0387497
0.04274
0.0464004
0.049548
0.0520028
0.0535288
0.0535651
0.0511505
0.0464597
0.0399133
0.0313383
0.0212429
0.0111954
0.0035246
0
0.00564069
0.00596377
0.00620619
0.00640468
0.00656913
0.00669134
0.00675589
0.00674969
0.00666796
0.00651628
0.00630902
0.0060661
0.00581004
0.00556565
0.00536407
0.00525193
0.00530091
0.00557903
0.0058969
0.00536063
0.00382418
0.00233205
0.00127798
0.000671862
0.000415458
0.000282793
0
0.00313618
0.00198073
0.000223158
0.00213686
0.00508401
0.00857592
0.0125327
0.01683
0.0212985
0.0257298
0.0298898
0.0335378
0.0364488
0.0384365
0.0393686
0.039167
0.0377783
0.0351286
0.0313641
0.0279817
0.0261066
0.023773
0.0197377
0.0141943
0.00811565
0.00297579
0
0.000961837
0.000444535
0.0024484
0.00502597
0.00811346
0.0116048
0.0153532
0.0191763
0.0228665
0.0262036
0.028972
0.0309781
0.0320687
0.0321454
0.0311717
0.0291611
0.0261347
0.0220537
0.0170262
0.0125129
0.00990698
0.00768043
0.00504637
0.00249405
0.000734756
6.50389e-05
0
6.49403e-18
1.66541e-18
4.12151e-17
1.39128e-16
2.49507e-16
3.59366e-16
4.61577e-16
5.61662e-16
6.54261e-16
7.39146e-16
8.1796e-16
8.91506e-16
9.30159e-16
9.45778e-16
9.37643e-16
9.32056e-16
8.93792e-16
8.23609e-16
7.63205e-16
6.82181e-16
5.82285e-16
4.6762e-16
3.35284e-16
2.0123e-16
8.79305e-17
2.02025e-17
0
0.000961837
0.000444535
0.0024484
0.00502597
0.00811346
0.0116048
0.0153532
0.0191763
0.0228665
0.0262036
0.028972
0.0309781
0.0320687
0.0321454
0.0311717
0.0291611
0.0261347
0.0220537
0.0170262
0.0125129
0.00990698
0.00768043
0.00504637
0.00249405
0.000734756
6.50389e-05
0
0.00313618
0.00198073
0.000223158
0.00213686
0.00508401
0.00857592
0.0125327
0.01683
0.0212985
0.0257298
0.0298898
0.0335378
0.0364488
0.0384365
0.0393686
0.039167
0.0377783
0.0351286
0.0313641
0.0279817
0.0261066
0.023773
0.0197377
0.0141943
0.00811565
0.00297579
0
0.00564069
0.00596377
0.00620619
0.00640468
0.00656913
0.00669134
0.00675589
0.00674969
0.00666796
0.00651628
0.00630902
0.0060661
0.00581004
0.00556565
0.00536407
0.00525193
0.00530091
0.00557903
0.0058969
0.00536063
0.00382418
0.00233205
0.00127798
0.000671862
0.000415458
0.000282793
0
0.006616
0.00770431
0.00891381
0.0103404
0.0120661
0.0141542
0.0166455
0.0195551
0.0228693
0.0265422
0.0304941
0.0346115
0.0387497
0.04274
0.0464004
0.049548
0.0520028
0.0535288
0.0535651
0.0511505
0.0464597
0.0399133
0.0313383
0.0212429
0.0111954
0.0035246
0
0.00602795
0.00649666
0.00658353
0.00635462
0.00591845
0.00540554
0.00494611
0.00465028
0.00459435
0.00481499
0.00531163
0.00605556
0.00700365
0.00811357
0.00935761
0.0107307
0.0122406
0.0138286
0.0150395
0.0147519
0.0130087
0.0108325
0.00848186
0.00602523
0.00362707
0.00153922
0
0.00569626
0.00537611
0.00412486
0.00201726
0.000756058
0.00392135
0.00716607
0.0101871
0.0127348
0.0146473
0.0158684
0.0164503
0.0165393
0.0163477
0.016115
0.0160592
0.016324
0.0169651
0.0182132
0.0208916
0.0242085
0.0256393
0.0240102
0.0192845
0.0123163
0.00504304
0
0.00677622
0.00635721
0.00484812
0.00239362
0.000733241
0.00417301
0.00753011
0.0104279
0.0125624
0.0137476
0.0139451
0.0132702
0.011973
0.0103921
0.0088835
0.0077307
0.0070476
0.00674255
0.00684777
0.00809049
0.0096136
0.00935945
0.00724905
0.00422915
0.00146876
2.4796e-05
0
0.00876082
0.00854056
0.00722206
0.00504198
0.00231482
0.000635562
0.00352473
0.00613439
0.00831893
0.00999676
0.0111322
0.0117135
0.0117307
0.0111569
0.00993445
0.00796656
0.00512414
0.00131734
0.00315101
0.00705277
0.00978292
0.0115167
0.0115629
0.00942014
0.00562476
0.00187497
0
0.0107349
0.0106264
0.00927201
0.00703545
0.00438169
0.00175078
0.000539692
0.00234581
0.0036959
0.00474271
0.00568519
0.00668258
0.00778473
0.00889895
0.00980493
0.0102174
0.00987944
0.00864042
0.00642788
0.00334188
0.000422872
0.00132456
0.0017284
0.0010806
0.000100621
0.000348899
0
0.0122472
0.0126728
0.0116149
0.00939501
0.00656573
0.00376772
0.00157621
0.000369212
0.000245209
0.00100752
0.00221802
0.00330755
0.00371673
0.00303228
0.00108271
0.00203391
0.00599071
0.0102515
0.0137343
0.0145741
0.0132171
0.0112751
0.00859
0.00518968
0.00203513
0.00031558
0
0.0124148
0.0143674
0.0149545
0.0140795
0.0119328
0.00895341
0.00574039
0.0029324
0.00107814
0.00052565
0.00135475
0.00336858
0.00614716
0.00915002
0.0118397
0.0137875
0.0147281
0.0146018
0.0138621
0.0136055
0.0126057
0.00910528
0.00423281
2.31033e-05
0.00195756
0.00149177
0
0.00909176
0.0126345
0.0156786
0.0176434
0.0180697
0.0167232
0.0136623
0.00925436
0.00413296
0.0009002
0.00501148
0.00748416
0.00784816
0.00596062
0.00201688
0.00351083
0.00999041
0.0168054
0.0237723
0.0314487
0.0381435
0.0403711
0.03701
0.0287328
0.0174889
0.00664558
0
0.000955791
0.00389158
0.00745141
0.0110471
0.0139536
0.0154331
0.0148731
0.0119122
0.00653043
0.000916656
0.00973339
0.0189882
0.0276742
0.0349008
0.0400784
0.0430571
0.0441759
0.0441388
0.0433673
0.0405744
0.0348527
0.0281687
0.0218003
0.0158721
0.0100989
0.00448955
0
0.00817173
0.0084105
0.00767358
0.00606002
0.0038764
0.00161149
0.000119936
0.000659661
0.000594264
0.00408366
0.00999812
0.0182112
0.0282598
0.0393779
0.0505863
0.0608361
0.0691883
0.074999
0.077958
0.0774916
0.0725766
0.0633245
0.0506788
0.0360379
0.021262
0.0085778
0
0.00952674
0.0116723
0.0132285
0.0138723
0.0133254
0.0113918
0.00799147
0.003182
0.00283382
0.00971952
0.0170356
0.0242879
0.0309883
0.0367223
0.0412127
0.0443699
0.0463111
0.0472895
0.0473209
0.0456053
0.0419876
0.0373038
0.0316577
0.0248758
0.0169391
0.00828032
0
</DataArray>
</PointData>
</Piece>
</UnstructuredGrid>
</VTKFile>
