<?xml version="1.0"?>
<VTKFile type="UnstructuredGrid" version="0.1" byte_order="LittleEndian">
<UnstructuredGrid>
<Piece NumberOfPoints="33024" NumberOfCells="32768">
<Points>
<DataArray type="Float64" NumberOfComponents="3" format="ascii">
5.3846e-06 0 0
5.38298e-06 2.45412e-07 0
5.37812e-06 4.90677e-07 0
5.37001e-06 7.35646e-07 0
5.35868e-06 9.80171e-07 0
5.34411e-06 1.22411e-06 0
5.32632e-06 1.4673e-06 0
5.30533e-06 1.70962e-06 0
5.28114e-06 1.9509e-06 0
5.25377e-06 2.19101e-06 0
5.22323e-06 2.4298e-06 0
5.18955e-06 2.66713e-06 0
5.15274e-06 2.90285e-06 0
5.11283e-06 3.13682e-06 0
5.06984e-06 3.3689e-06 0
5.0238e-06 3.59895e-06 0
4.97472e-06 3.82683e-06 0
4.92266e-06 4.05241e-06 0
4.86762e-06 4.27555e-06 0
4.80966e-06 4.49611e-06 0
4.74879e-06 4.71397e-06 0
4.68507e-06 4.92898e-06 0
4.61853e-06 5.14103e-06 0
4.5492e-06 5.34998e-06 0
4.47713e-06 5.5557e-06 0
4.40237e-06 5.75808e-06 0
4.32495e-06 5.95699e-06 0
4.24493e-06 6.15232e-06 0
4.16235e-06 6.34393e-06 0
4.07727e-06 6.53173e-06 0
3.98972e-06 6.71559e-06 0
3.89978e-06 6.89541e-06 0
3.80749e-06 7.07107e-06 0
3.7129e-06 7.24247e-06 0
3.61607e-06 7.40951e-06 0
3.51707e-06 7.57209e-06 0
3.41595e-06 7.7301e-06 0
3.31277e-06 7.88346e-06 0
3.2076e-06 8.03208e-06 0
3.10049e-06 8.17585e-06 0
2.99152e-06 8.3147e-06 0
2.88074e-06 8.44854e-06 0
2.76823e-06 8.57729e-06 0
2.65406e-06 8.70087e-06 0
2.53828e-06 8.81921e-06 0
2.42097e-06 8.93224e-06 0
2.30221e-06 9.03989e-06 0
2.18206e-06 9.1421e-06 0
2.06059e-06 9.2388e-06 0
1.93788e-06 9.32993e-06 0
1.81401e-06 9.41544e-06 0
1.68904e-06 9.49528e-06 0
1.56306e-06 9.5694e-06 0
1.43613e-06 9.63776e-06 0
1.30834e-06 9.70031e-06 0
1.17976e-06 9.75702e-06 0
1.05047e-06 9.80785e-06 0
9.20552e-07 9.85278e-06 0
7.90075e-07 9.89177e-06 0
6.59123e-07 9.9248e-06 0
5.27773e-07 9.95185e-06 0
3.96105e-07 9.9729e-06 0
2.64199e-07 9.98795e-06 0
1.32133e-07 9.99699e-06 0
-1.18343e-11 1e-05 0
-1.32157e-07 9.99699e-06 0
-2.64222e-07 9.98795e-06 0
-3.96129e-07 9.9729e-06 0
-5.27796e-07 9.95185e-06 0
-6.59146e-07 9.9248e-06 0
-7.90099e-07 9.89177e-06 0
-9.20576e-07 9.85278e-06 0
-1.0505e-06 9.80785e-06 0
-1.17979e-06 9.75702e-06 0
-1.30837e-06 9.70031e-06 0
-1.43616e-06 9.63776e-06 0
-1.56308e-06 9.5694e-06 0
-1.68907e-06 9.49528e-06 0
-1.81403e-06 9.41544e-06 0
-1.93791e-06 9.32993e-06 0
-2.06061e-06 9.2388e-06 0
-2.18208e-06 9.1421e-06 0
-2.30223e-06 9.03989e-06 0
-2.421e-06 8.93224e-06 0
-2.5383e-06 8.81921e-06 0
-2.65408e-06 8.70087e-06 0
-2.76826e-06 8.57729e-06 0
-2.88077e-06 8.44854e-06 0
-2.99154e-06 8.3147e-06 0
-3.10052e-06 8.17585e-06 0
-3.20762e-06 8.03208e-06 0
-3.3128e-06 7.88346e-06 0
-3.41598e-06 7.7301e-06 0
-3.5171e-06 7.57209e-06 0
-3.6161e-06 7.40951e-06 0
-3.71292e-06 7.24247e-06 0
-3.80751e-06 7.07107e-06 0
-3.8998e-06 6.89541e-06 0
-3.98975e-06 6.71559e-06 0
-4.07729e-06 6.53173e-06 0
-4.16238e-06 6.34393e-06 0
-4.24495e-06 6.15232e-06 0
-4.32498e-06 5.95699e-06 0
-4.40239e-06 5.75808e-06 0
-4.47716e-06 5.5557e-06 0
-4.54922e-06 5.34998e-06 0
-4.61855e-06 5.14103e-06 0
-4.6851e-06 4.92898e-06 0
-4.74882e-06 4.71397e-06 0
-4.80968e-06 4.49611e-06 0
-4.86765e-06 4.27555e-06 0
-4.92268e-06 4.05241e-06 0
-4.97475e-06 3.82683e-06 0
-5.02382e-06 3.59895e-06 0
-5.06986e-06 3.3689e-06 0
-5.11286e-06 3.13682e-06 0
-5.15277e-06 2.90285e-06 0
-5.18958e-06 2.66713e-06 0
-5.22326e-06 2.4298e-06 0
-5.25379e-06 2.19101e-06 0
-5.28116e-06 1.9509e-06 0
-5.30535e-06 1.70962e-06 0
-5.32635e-06 1.4673e-06 0
-5.34413e-06 1.22411e-06 0
-5.3587e-06 9.80171e-07 0
-5.37004e-06 7.35646e-07 0
-5.37814e-06 4.90677e-07 0
-5.38301e-06 2.45412e-07 0
-5.38463e-06 1.22465e-21 0
-5.38301e-06 -2.45412e-07 0
-5.37814e-06 -4.90677e-07 0
-5.37004e-06 -7.35646e-07 0
-5.3587e-06 -9.80171e-07 0
-5.34413e-06 -1.22411e-06 0
-5.32635e-06 -1.4673e-06 0
-5.30535e-06 -1.70962e-06 0
-5.28116e-06 -1.9509e-06 0
-5.25379e-06 -2.19101e-06 0
-5.22326e-06 -2.4298e-06 0
-5.18958e-06 -2.66713e-06 0
-5.15277e-06 -2.90285e-06 0
-5.11286e-06 -3.13682e-06 0
-5.06986e-06 -3.3689e-06 0
-5.02382e-06 -3.59895e-06 0
-4.97475e-06 -3.82683e-06 0
-4.92268e-06 -4.05241e-06 0
-4.86765e-06 -4.27555e-06 0
-4.80968e-06 -4.49611e-06 0
-4.74882e-06 -4.71397e-06 0
-4.6851e-06 -4.92898e-06 0
-4.61855e-06 -5.14103e-06 0
-4.54922e-06 -5.34998e-06 0
-4.47716e-06 -5.5557e-06 0
-4.40239e-06 -5.75808e-06 0
-4.32498e-06 -5.95699e-06 0
-4.24495e-06 -6.15232e-06 0
-4.16238e-06 -6.34393e-06 0
-4.07729e-06 -6.53173e-06 0
-3.98975e-06 -6.71559e-06 0
-3.8998e-06 -6.89541e-06 0
-3.80751e-06 -7.07107e-06 0
-3.71292e-06 -7.24247e-06 0
-3.6161e-06 -7.40951e-06 0
-3.5171e-06 -7.57209e-06 0
-3.41598e-06 -7.7301e-06 0
-3.3128e-06 -7.88346e-06 0
-3.20762e-06 -8.03208e-06 0
-3.10052e-06 -8.17585e-06 0
-2.99154e-06 -8.3147e-06 0
-2.88077e-06 -8.44854e-06 0
-2.76826e-06 -8.57729e-06 0
-2.65408e-06 -8.70087e-06 0
-2.5383e-06 -8.81921e-06 0
-2.421e-06 -8.93224e-06 0
-2.30223e-06 -9.03989e-06 0
-2.18208e-06 -9.1421e-06 0
-2.06061e-06 -9.2388e-06 0
-1.93791e-06 -9.32993e-06 0
-1.81403e-06 -9.41544e-06 0
-1.68907e-06 -9.49528e-06 0
-1.56308e-06 -9.5694e-06 0
-1.43616e-06 -9.63776e-06 0
-1.30837e-06 -9.70031e-06 0
-1.17979e-06 -9.75702e-06 0
-1.0505e-06 -9.80785e-06 0
-9.20576e-07 -9.85278e-06 0
-7.90099e-07 -9.89177e-06 0
-6.59146e-07 -9.9248e-06 0
-5.27796e-07 -9.95185e-06 0
-3.96129e-07 -9.9729e-06 0
-2.64222e-07 -9.98795e-06 0
-1.32157e-07 -9.99699e-06 0
-1.18343e-11 -1e-05 0
1.32133e-07 -9.99699e-06 0
2.64199e-07 -9.98795e-06 0
3.96105e-07 -9.9729e-06 0
5.27773e-07 -9.95185e-06 0
6.59123e-07 -9.9248e-06 0
7.90075e-07 -9.89177e-06 0
9.20552e-07 -9.85278e-06 0
1.05047e-06 -9.80785e-06 0
1.17976e-06 -9.75702e-06 0
1.30834e-06 -9.70031e-06 0
1.43613e-06 -9.63776e-06 0
1.56306e-06 -9.5694e-06 0
1.68904e-06 -9.49528e-06 0
1.81401e-06 -9.41544e-06 0
1.93788e-06 -9.32993e-06 0
2.06059e-06 -9.2388e-06 0
2.18206e-06 -9.1421e-06 0
2.30221e-06 -9.03989e-06 0
2.42097e-06 -8.93224e-06 0
2.53828e-06 -8.81921e-06 0
2.65406e-06 -8.70087e-06 0
2.76823e-06 -8.57729e-06 0
2.88074e-06 -8.44854e-06 0
2.99152e-06 -8.3147e-06 0
3.10049e-06 -8.17585e-06 0
3.2076e-06 -8.03208e-06 0
3.31277e-06 -7.88346e-06 0
3.41595e-06 -7.7301e-06 0
3.51707e-06 -7.57209e-06 0
3.61607e-06 -7.40951e-06 0
3.7129e-06 -7.24247e-06 0
3.80749e-06 -7.07107e-06 0
3.89978e-06 -6.89541e-06 0
3.98972e-06 -6.71559e-06 0
4.07727e-06 -6.53173e-06 0
4.16235e-06 -6.34393e-06 0
4.24493e-06 -6.15232e-06 0
4.32495e-06 -5.95699e-06 0
4.40237e-06 -5.75808e-06 0
4.47713e-06 -5.5557e-06 0
4.5492e-06 -5.34998e-06 0
4.61853e-06 -5.14103e-06 0
4.68507e-06 -4.92898e-06 0
4.74879e-06 -4.71397e-06 0
4.80966e-06 -4.49611e-06 0
4.86762e-06 -4.27555e-06 0
4.92266e-06 -4.05241e-06 0
4.97472e-06 -3.82683e-06 0
5.0238e-06 -3.59895e-06 0
5.06984e-06 -3.3689e-06 0
5.11283e-06 -3.13682e-06 0
5.15274e-06 -2.90285e-06 0
5.18955e-06 -2.66713e-06 0
5.22323e-06 -2.4298e-06 0
5.25377e-06 -2.19101e-06 0
5.28114e-06 -1.9509e-06 0
5.30533e-06 -1.70962e-06 0
5.32632e-06 -1.4673e-06 0
5.34411e-06 -1.22411e-06 0
5.35868e-06 -9.80171e-07 0
5.37001e-06 -7.35646e-07 0
5.37812e-06 -4.90677e-07 0
5.38298e-06 -2.45412e-07 0
0.00546186 0 0
0.00546021 0.00024949 0
0.00545527 0.00049883 0
0.00544703 0.00074787 0
0.0054355 0.000996459 0
0.00542069 0.00124445 0
0.00540261 0.00149169 0
0.00538127 0.00173803 0
0.00535668 0.00198332 0
0.00532885 0.00222742 0
0.00529781 0.00247018 0
0.00526357 0.00271145 0
0.00522615 0.00295108 0
0.00518557 0.00318894 0
0.00514187 0.00342488 0
0.00509506 0.00365875 0
0.00504517 0.00389043 0
0.00499224 0.00411975 0
0.00493629 0.0043466 0
0.00487736 0.00457083 0
0.00481549 0.0047923 0
0.00475071 0.00501089 0
0.00468305 0.00522646 0
0.00461258 0.00543888 0
0.00453931 0.00564802 0
0.0044633 0.00585377 0
0.0043846 0.00605598 0
0.00430325 0.00625455 0
0.0042193 0.00644935 0
0.0041328 0.00664027 0
0.0040438 0.00682718 0
0.00395236 0.00700999 0
0.00385854 0.00718857 0
0.00376238 0.00736282 0
0.00366394 0.00753264 0
0.0035633 0.00769792 0
0.0034605 0.00785856 0
0.0033556 0.00801447 0
0.00324868 0.00816555 0
0.0031398 0.00831171 0
0.00302901 0.00845286 0
0.0029164 0.00858893 0
0.00280202 0.00871982 0
0.00268594 0.00884545 0
0.00256824 0.00896576 0
0.00244898 0.00908067 0
0.00232825 0.00919011 0
0.0022061 0.00929401 0
0.00208261 0.00939232 0
0.00195787 0.00948497 0
0.00183194 0.0095719 0
0.00170489 0.00965307 0
0.00157681 0.00972842 0
0.00144778 0.00979791 0
0.00131787 0.0098615 0
0.00118715 0.00991916 0
0.00105571 0.00997083 0
0.00092363 0.0100165 0
0.000790985 0.0100561 0
0.000657856 0.0100897 0
0.000524324 0.0101172 0
0.000390468 0.0101386 0
0.00025637 0.0101539 0
0.00012211 0.0101631 0
-1.22309e-05 0.0101662 0
-0.000146572 0.0101631 0
-0.000280832 0.0101539 0
-0.00041493 0.0101386 0
-0.000548786 0.0101172 0
-0.000682318 0.0100897 0
-0.000815447 0.0100561 0
-0.000948092 0.0100165 0
-0.00108017 0.00997083 0
-0.00121161 0.00991916 0
-0.00134233 0.0098615 0
-0.00147224 0.00979791 0
-0.00160128 0.00972842 0
-0.00172935 0.00965307 0
-0.0018564 0.0095719 0
-0.00198233 0.00948497 0
-0.00210708 0.00939232 0
-0.00223056 0.00929401 0
-0.00235271 0.00919011 0
-0.00247344 0.00908067 0
-0.0025927 0.00896576 0
-0.0027104 0.00884545 0
-0.00282648 0.00871982 0
-0.00294086 0.00858893 0
-0.00305347 0.00845286 0
-0.00316426 0.00831171 0
-0.00327314 0.00816555 0
-0.00338007 0.00801447 0
-0.00348496 0.00785856 0
-0.00358776 0.00769792 0
-0.00368841 0.00753264 0
-0.00378684 0.00736282 0
-0.003883 0.00718857 0
-0.00397683 0.00700999 0
-0.00406827 0.00682718 0
-0.00415726 0.00664027 0
-0.00424376 0.00644935 0
-0.00432771 0.00625455 0
-0.00440906 0.00605598 0
-0.00448777 0.00585377 0
-0.00456377 0.00564802 0
-0.00463704 0.00543888 0
-0.00470752 0.00522646 0
-0.00477517 0.00501089 0
-0.00483995 0.0047923 0
-0.00490182 0.00457083 0
-0.00496075 0.0043466 0
-0.0050167 0.00411975 0
-0.00506963 0.00389043 0
-0.00511952 0.00365875 0
-0.00516633 0.00342488 0
-0.00521004 0.00318894 0
-0.00525061 0.00295108 0
-0.00528803 0.00271145 0
-0.00532227 0.00247018 0
-0.00535331 0.00222742 0
-0.00538114 0.00198332 0
[...]
<PointData Scalars="FunctionValues">
<DataArray type="Float32" Name="FunctionValues" format="ascii">4.33796e-05
4.33796e-05
4.33797e-05
4.33798e-05
4.338e-05
4.33803e-05
4.33806e-05
4.33809e-05
4.33813e-05
4.33817e-05
4.33821e-05
4.33826e-05
4.33831e-05
4.33836e-05
4.33841e-05
4.33846e-05
4.33852e-05
4.33858e-05
4.33864e-05
4.3387e-05
4.33877e-05
4.33883e-05
4.3389e-05
4.33897e-05
4.33904e-05
4.33911e-05
4.33918e-05
4.33925e-05
4.33932e-05
4.33939e-05
4.33946e-05
4.33952e-05
4.33958e-05
4.33964e-05
4.33969e-05
4.33974e-05
4.33979e-05
4.33984e-05
4.33988e-05
4.33992e-05
4.33996e-05
4.33999e-05
4.34002e-05
4.34005e-05
4.34008e-05
4.34011e-05
4.34013e-05
4.34016e-05
4.34018e-05
4.34021e-05
4.34023e-05
4.34025e-05
4.34027e-05
4.34029e-05
4.34031e-05
4.34032e-05
4.34033e-05
4.34035e-05
4.34035e-05
4.34036e-05
4.34037e-05
4.34037e-05
4.34037e-05
4.34037e-05
4.34037e-05
4.34036e-05
4.34036e-05
4.34035e-05
4.34034e-05
4.34033e-05
4.34031e-05
4.3403e-05
4.34028e-05
4.34027e-05
4.34025e-05
4.34022e-05
4.3402e-05
4.34018e-05
4.34015e-05
4.34012e-05
4.34008e-05
4.34005e-05
4.34001e-05
4.33997e-05
4.33992e-05
4.33988e-05
4.33983e-05
4.33978e-05
4.33973e-05
4.33967e-05
4.33962e-05
4.33957e-05
4.33951e-05
4.33946e-05
4.3394e-05
4.33934e-05
4.33929e-05
4.33923e-05
4.33918e-05
4.33912e-05
4.33906e-05
4.339e-05
4.33895e-05
4.33888e-05
4.33882e-05
4.33876e-05
4.33869e-05
4.33862e-05
4.33855e-05
4.33848e-05
4.3384e-05
4.33833e-05
4.33825e-05
4.33818e-05
4.3381e-05
4.33803e-05
4.33796e-05
4.33789e-05
4.33783e-05
4.33777e-05
4.33772e-05
4.33767e-05
4.33763e-05
4.33759e-05
4.33756e-05
4.33754e-05
4.33752e-05
4.33751e-05
4.33751e-05
4.33751e-05
4.33752e-05
4.33754e-05
4.33756e-05
4.33759e-05
4.33763e-05
4.33767e-05
4.33772e-05
4.33777e-05
4.33783e-05
4.33789e-05
4.33796e-05
4.33803e-05
4.3381e-05
4.33818e-05
4.33825e-05
4.33833e-05
4.3384e-05
4.33848e-05
4.33855e-05
4.33862e-05
4.33869e-05
4.33876e-05
4.33882e-05
4.33888e-05
4.33895e-05
4.339e-05
4.33906e-05
4.33912e-05
4.33918e-05
4.33923e-05
4.33929e-05
4.33934e-05
4.3394e-05
4.33946e-05
4.33951e-05
4.33957e-05
4.33962e-05
4.33967e-05
4.33973e-05
4.33978e-05
4.33983e-05
4.33988e-05
4.33992e-05
4.33997e-05
4.34001e-05
4.34005e-05
4.34008e-05
4.34012e-05
4.34015e-05
4.34018e-05
4.3402e-05
4.34022e-05
4.34025e-05
4.34027e-05
4.34028e-05
4.3403e-05
4.34031e-05
4.34033e-05
4.34034e-05
4.34035e-05
4.34036e-05
4.34036e-05
4.34037e-05
4.34037e-05
4.34037e-05
4.34037e-05
4.34037e-05
4.34036e-05
4.34035e-05
4.34035e-05
4.34033e-05
4.34032e-05
4.34031e-05
4.34029e-05
4.34027e-05
4.34025e-05
4.34023e-05
4.34021e-05
4.34018e-05
4.34016e-05
4.34013e-05
4.34011e-05
4.34008e-05
4.34005e-05
4.34002e-05
4.33999e-05
4.33996e-05
4.33992e-05
4.33988e-05
4.33984e-05
4.33979e-05
4.33974e-05
4.33969e-05
4.33964e-05
4.33958e-05
4.33952e-05
4.33946e-05
4.33939e-05
4.33932e-05
4.33925e-05
4.33918e-05
4.33911e-05
4.33904e-05
4.33897e-05
4.3389e-05
4.33883e-05
4.33877e-05
4.3387e-05
4.33864e-05
4.33858e-05
4.33852e-05
4.33846e-05
4.33841e-05
4.33836e-05
4.33831e-05
4.33826e-05
4.33821e-05
4.33817e-05
4.33813e-05
4.33809e-05
4.33806e-05
4.33803e-05
4.338e-05
4.33798e-05
4.33797e-05
4.33796e-05
4.79673e-05
4.78995e-05
4.76993e-05
4.73762e-05
4.69454e-05
4.64275e-05
4.58468e-05
4.52309e-05
4.46089e-05
4.40101e-05
4.34627e-05
4.29923e-05
4.26208e-05
4.23652e-05
4.2237e-05
4.22413e-05
4.23768e-05
4.26359e-05
4.30048e-05
4.34644e-05
4.39912e-05
4.45582e-05
4.51367e-05
4.56971e-05
4.62107e-05
4.66513e-05
4.69958e-05
4.72261e-05
4.73295e-05
4.72993e-05
4.71355e-05
4.68446e-05
4.64391e-05
4.59371e-05
4.53615e-05
4.47388e-05
4.40975e-05
4.34673e-05
4.28771e-05
4.23541e-05
4.1922e-05
4.16001e-05
4.14023e-05
4.13365e-05
4.14041e-05
4.15999e-05
4.19127e-05
4.23253e-05
4.28157e-05
4.33582e-05
4.39245e-05
4.44851e-05
4.50108e-05
4.54741e-05
4.58506e-05
4.612e-05
4.62674e-05
4.62837e-05
4.61663e-05
4.5919e-05
4.55522e-05
4.50819e-05
4.45291e-05
4.39192e-05
4.32799e-05
4.26407e-05
4.20309e-05
4.14786e-05
4.10088e-05
4.06427e-05
4.03963e-05
4.028e-05
4.02976e-05
4.04465e-05
4.07176e-05
4.10961e-05
4.15616e-05
4.20898e-05
4.26532e-05
4.32225e-05
4.37684e-05
4.42624e-05
4.46788e-05
4.49957e-05
4.51958e-05
4.5268e-05
4.52069e-05
4.50139e-05
4.4697e-05
4.427e-05
4.37522e-05
4.31672e-05
4.25423e-05
4.19062e-05
4.12887e-05
4.07183e-05
4.02215e-05
3.98211e-05
3.95353e-05
3.93767e-05
3.93516e-05
3.94601e-05
3.96955e-05
4.00453e-05
4.04911e-05
4.10101e-05
4.15759e-05
4.21598e-05
4.27324e-05
4.32647e-05
4.37299e-05
4.41044e-05
4.4369e-05
4.45099e-05
4.45194e-05
4.43962e-05
4.41455e-05
4.37784e-05
4.33122e-05
4.27685e-05
4.21731e-05
4.15541e-05
4.09408e-05
4.03623e-05
3.98461e-05
3.94166e-05
3.90945e-05
3.88948e-05
3.88272e-05
3.88948e-05
3.90945e-05
3.94166e-05
3.98461e-05
4.03623e-05
4.09408e-05
4.15541e-05
4.21731e-05
4.27685e-05
4.33122e-05
4.37784e-05
4.41455e-05
4.43962e-05
4.45194e-05
4.45099e-05
4.4369e-05
4.41044e-05
4.37299e-05
4.32647e-05
4.27324e-05
4.21598e-05
4.15759e-05
4.10101e-05
4.04911e-05
4.00453e-05
3.96955e-05
3.94601e-05
3.93516e-05
3.93767e-05
3.95353e-05
3.98211e-05
4.02215e-05
4.07183e-05
4.12887e-05
4.19062e-05
4.25423e-05
4.31672e-05
4.37522e-05
4.427e-05
4.4697e-05
4.50139e-05
4.52069e-05
4.5268e-05
4.51958e-05
4.49957e-05
4.46788e-05
4.42624e-05
4.37684e-05
4.32225e-05
4.26532e-05
4.20898e-05
4.15616e-05
4.10961e-05
4.07176e-05
4.04465e-05
4.02976e-05
4.028e-05
4.03963e-05
4.06427e-05
4.10088e-05
4.14786e-05
4.20309e-05
4.26407e-05
4.32799e-05
4.39192e-05
4.45291e-05
4.50819e-05
4.55522e-05
4.5919e-05
4.61663e-05
4.62837e-05
4.62674e-05
4.612e-05
4.58506e-05
4.54741e-05
4.50108e-05
4.44851e-05
4.39245e-05
4.33582e-05
4.28157e-05
4.23253e-05
4.19127e-05
4.15999e-05
4.14041e-05
4.13365e-05
4.14023e-05
4.16001e-05
4.1922e-05
4.23541e-05
4.28771e-05
4.34673e-05
4.40975e-05
4.47388e-05
4.53615e-05
4.59371e-05
4.64391e-05
4.68446e-05
4.71355e-05
4.72993e-05
4.73295e-05
4.72261e-05
4.69958e-05
4.66513e-05
4.62107e-05
4.56971e-05
4.51367e-05
4.45582e-05
4.39912e-05
4.34644e-05
4.30048e-05
4.26359e-05
4.23768e-05
4.22413e-05
4.2237e-05
4.23652e-05
4.26208e-05
4.29923e-05
4.34627e-05
4.40101e-05
4.46089e-05
4.52309e-05
4.58468e-05
4.64275e-05
4.69454e-05
4.73762e-05
4.76993e-05
4.78995e-05
5.94313e-05
5.91307e-05
5.82433e-05
5.68115e-05
5.49038e-05
5.26114e-05
5.0044e-05
4.7324e-05
4.45815e-05
4.1947e-05
3.9546e-05
3.74923e-05
3.58829e-05
3.47931e-05
3.42729e-05
3.43445e-05
3.50014e-05
3.62085e-05
3.7904e-05
4.00022e-05
4.23979e-05
4.49711e-05
4.75933e-05
5.01336e-05
5.24648e-05
5.44702e-05
5.60485e-05
5.71195e-05
5.76274e-05
5.7544e-05
5.68697e-05
5.56339e-05
5.38931e-05
5.17285e-05
4.9242e-05
4.65511e-05
4.37833e-05
4.10699e-05
3.85396e-05
3.63122e-05
3.44926e-05
3.31661e-05
3.23939e-05
3.22101e-05
3.26205e-05
3.36017e-05
3.51026e-05
3.70469e-05
3.93366e-05
4.18569e-05
4.4482e-05
4.70808e-05
4.95236e-05
5.16884e-05
5.34666e-05
5.47686e-05
5.5528e-05
5.57047e-05
5.52872e-05
5.4293e-05
5.27674e-05
5.0782e-05
4.84304e-05
4.58245e-05
4.30882e-05
4.0352e-05
3.77464e-05
3.53953e-05
3.34105e-05
3.18859e-05
3.08929e-05
3.0477e-05
3.06556e-05
3.14174e-05
3.27223e-05
3.4504e-05
3.66729e-05
3.91205e-05
4.17248e-05
4.43561e-05
4.68835e-05
4.9181e-05
5.11338e-05
5.26441e-05
5.36354e-05
5.40567e-05
5.38845e-05
5.31243e-05
5.18105e-05
5.00042e-05
4.77904e-05
4.52742e-05
4.25753e-05
3.98222e-05
3.71464e-05
3.46752e-05
3.25262e-05
3.08013e-05
2.95817e-05
2.8924e-05
2.88577e-05
2.93831e-05
3.04721e-05
3.20689e-05
3.40934e-05
3.64444e-05
3.90049e-05
4.16479e-05
4.42424e-05
4.66596e-05
4.87797e-05
5.04971e-05
5.17261e-05
5.24045e-05
5.24972e-05
5.19973e-05
5.0927e-05
4.9336e-05
4.72995e-05
4.49143e-05
4.22941e-05
3.95642e-05
3.68553e-05
3.42971e-05
3.20124e-05
3.01106e-05
2.8683e-05
2.77981e-05
2.74984e-05
2.77981e-05
2.8683e-05
3.01106e-05
3.20124e-05
3.42971e-05
3.68553e-05
3.95642e-05
4.22941e-05
4.49143e-05
4.72995e-05
4.9336e-05
5.0927e-05
5.19973e-05
5.24972e-05
5.24045e-05
5.17261e-05
5.04971e-05
4.87797e-05
4.66596e-05
4.42424e-05
4.16479e-05
3.90049e-05
3.64444e-05
3.40934e-05
3.20689e-05
3.04721e-05
2.93831e-05
2.88577e-05
2.8924e-05
2.95817e-05
3.08013e-05
3.25262e-05
3.46752e-05
3.71464e-05
3.98222e-05
4.25753e-05
4.52742e-05
4.77904e-05
5.00042e-05
5.18105e-05
5.31243e-05
5.38845e-05
5.40567e-05
5.36354e-05
5.26441e-05
5.11338e-05
4.9181e-05
4.68835e-05
4.43561e-05
4.17248e-05
3.91205e-05
3.66729e-05
3.4504e-05
3.27223e-05
3.14174e-05
3.06556e-05
3.0477e-05
3.08929e-05
3.18859e-05
3.34105e-05
3.53953e-05
3.77464e-05
4.0352e-05
4.30882e-05
4.58245e-05
4.84304e-05
5.0782e-05
5.27674e-05
5.4293e-05
5.52872e-05
5.57047e-05
5.5528e-05
5.47686e-05
5.34666e-05
5.16884e-05
4.95236e-05
4.70808e-05
4.4482e-05
4.18569e-05
3.93366e-05
3.70469e-05
3.51026e-05
3.36017e-05
3.26205e-05
3.22101e-05
3.23939e-05
3.31661e-05
3.44926e-05
3.63122e-05
3.85396e-05
4.10699e-05
4.37833e-05
4.65511e-05
4.9242e-05
5.17285e-05
5.38931e-05
5.56339e-05
5.68697e-05
5.7544e-05
5.76274e-05
5.71195e-05
5.60485e-05
5.44702e-05
5.24648e-05
5.01336e-05
4.75933e-05
4.49711e-05
4.23979e-05
4.00022e-05
3.7904e-05
3.62085e-05
3.50014e-05
3.43445e-05
3.42729e-05
3.47931e-05
3.58829e-05
3.74923e-05
3.9546e-05
4.1947e-05
4.45815e-05
4.7324e-05
5.0044e-05
5.26114e-05
5.49038e-05
5.68115e-05
5.82433e-05
5.91307e-05
8.01938e-05
7.94381e-05
7.72072e-05
7.36082e-05
6.88137e-05
6.30535e-05
5.66037e-05
4.97734e-05
4.28894e-05
3.6281e-05
3.02635e-05
2.51236e-05
2.11047e-05
1.83961e-05
1.71231e-05
1.7341e-05
1.90328e-05
2.21098e-05
2.64159e-05
3.17351e-05
3.78022e-05
4.43156e-05
5.0952e-05
5.73821e-05
6.32867e-05
6.8372e-05
7.23845e-05
7.51225e-05
7.64468e-05
7.62867e-05
7.46442e-05
7.15933e-05
6.72768e-05
6.18993e-05
5.57169e-05
4.90254e-05
4.21451e-05
3.5406e-05
2.91312e-05
2.36213e-05
1.91398e-05
1.59005e-05
1.40565e-05
1.36932e-05
1.48243e-05
1.73905e-05
2.12629e-05
2.62492e-05
3.21027e-05
3.85349e-05
4.5229e-05
5.18555e-05
5.80884e-05
6.36209e-05
6.81803e-05
7.15414e-05
7.35373e-05
7.40676e-05
7.31034e-05
7.06886e-05
6.69376e-05
6.20299e-05
5.62014e-05
4.97328e-05
4.2936e-05
3.61388e-05
2.9669e-05
2.38387e-05
1.89285e-05
1.51745e-05
1.27562e-05
1.17883e-05
1.23147e-05
1.43068e-05
1.76642e-05
2.22203e-05
2.77501e-05
3.39809e-05
4.06063e-05
4.73002e-05
5.37334e-05
5.95891e-05
6.45789e-05
6.84562e-05
7.10287e-05
7.21674e-05
7.18133e-05
6.99798e-05
6.67522e-05
6.22839e-05
5.67885e-05
5.05294e-05
4.38073e-05
3.69453e-05
3.02733e-05
2.4112e-05
1.87568e-05
1.44644e-05
1.14393e-05
9.82431e-06
9.69382e-06
1.10498e-05
1.38218e-05
1.78705e-05
2.29946e-05
2.89403e-05
3.54139e-05
4.2096e-05
4.86571e-05
5.47736e-05
6.01436e-05
6.45014e-05
6.76306e-05
6.93746e-05
6.96441e-05
6.84214e-05
6.57614e-05
6.17889e-05
5.66925e-05
5.07154e-05
4.41438e-05
3.72927e-05
3.04912e-05
2.4066e-05
1.83259e-05
1.35471e-05
9.95935e-06
7.73524e-06
6.98179e-06
7.73524e-06
9.95935e-06
1.35471e-05
1.83259e-05
2.4066e-05
3.04912e-05
3.72927e-05
4.41438e-05
5.07154e-05
5.66925e-05
6.17889e-05
6.57614e-05
6.84214e-05
6.96441e-05
6.93746e-05
6.76306e-05
6.45014e-05
6.01436e-05
5.47736e-05
4.86571e-05
4.2096e-05
3.54139e-05
2.89403e-05
2.29946e-05
1.78705e-05
1.38218e-05
1.10498e-05
9.69382e-06
9.82431e-06
1.14393e-05
1.44644e-05
1.87568e-05
2.4112e-05
3.02733e-05
3.69453e-05
4.38073e-05
5.05294e-05
5.67885e-05
6.22839e-05
6.67522e-05
6.99798e-05
7.18133e-05
7.21674e-05
7.10287e-05
6.84562e-05
6.45789e-05
5.95891e-05
5.37334e-05
4.73002e-05
4.06063e-05
3.39809e-05
2.77501e-05
2.22203e-05
1.76642e-05
1.43068e-05
1.23147e-05
1.17883e-05
1.27562e-05
1.51745e-05
1.89285e-05
2.38387e-05
2.9669e-05
3.61388e-05
4.2936e-05
4.97328e-05
5.62014e-05
6.20299e-05
6.69376e-05
7.06886e-05
7.31034e-05
7.40676e-05
7.35373e-05
7.15414e-05
6.81803e-05
6.36209e-05
5.80884e-05
5.18555e-05
4.5229e-05
3.85349e-05
3.21027e-05
2.62492e-05
2.12629e-05
1.73905e-05
1.48243e-05
1.36932e-05
1.40565e-05
1.59005e-05
1.91398e-05
2.36213e-05
2.91312e-05
3.5406e-05
4.21451e-05
4.90254e-05
5.57169e-05
6.18993e-05
6.72768e-05
7.15933e-05
7.46442e-05
7.62867e-05
7.64468e-05
7.51225e-05
7.23845e-05
6.8372e-05
6.32867e-05
5.73821e-05
5.0952e-05
4.43156e-05
3.78022e-05
3.17351e-05
2.64159e-05
2.21098e-05
1.90328e-05
1.7341e-05
1.71231e-05
1.83961e-05
2.11047e-05
2.51236e-05
3.02635e-05
3.6281e-05
4.28894e-05
4.97734e-05
5.66037e-05
6.30535e-05
6.88137e-05
7.36082e-05
7.72072e-05
7.94381e-05
0.000113408
0.000111899
0.000107445
0.000100259
9.06879e-05
7.91895e-05
6.63162e-05
5.26854e-05
3.89504e-05
2.57688e-05
1.37708e-05
3.52846e-06
-4.47162e-06
-9.85213e-06
-1.23631e-05
-1.18943e-05
-8.48001e-06
-2.2979e-06
6.33994e-06
1.70021e-05
2.9159e-05
4.22084e-05
5.55047e-05
6.83909e-05
8.02299e-05
9.04357e-05
9.85024e-05
0.000104028
0.000106735
0.000106483
0.000103276
9.72625e-05
8.87273e-05
7.80787e-05
6.58282e-05
5.25656e-05
3.89303e-05
2.55801e-05
1.31595e-05
2.2677e-06
-6.56989e-06
-1.29277e-05
-1.65006e-05
-1.71186e-05
-1.47555e-05
-9.53004e-06
-1.69981e-06
8.35077e-06
2.01294e-05
3.30599e-05
4.65099e-05
5.98222e-05
7.23461e-05
8.34694e-05
9.26481e-05
9.94331e-05
0.000103491
0.000104623
0.000102771
9.80221e-05
9.06053e-05
8.08791e-05
6.93142e-05
5.64708e-05
4.29714e-05
2.94703e-05
1.66218e-05
5.04833e-06
-4.68961e-06
-1.21211e-05
-1.68873e-05
-1.87596e-05
-1.76498e-05
-1.36152e-05
-6.85553e-06
2.29697e-06
1.33934e-05
2.58901e-05
3.91754e-05
5.2599e-05
6.55037e-05
7.72578e-05
8.72851e-05
9.50936e-05
0.000100299
0.000102644
0.00010201
9.84238e-05
9.20546e-05
8.3208e-05
7.23097e-05
5.98852e-05
4.65342e-05
3.2901e-05
1.9644e-05
7.40269e-06
-3.23267e-06
-1.17503e-05
-1.77414e-05
-2.09206e-05
-2.11392e-05
-1.83926e-05
-1.2821e-05
-4.7017e-06
5.56359e-06
1.74688e-05
3.04281e-05
4.3804e-05
5.69389e-05
6.91867e-05
7.99444e-05
8.86815e-05
9.49653e-05
9.84828e-05
9.90549e-05
9.6646e-05
9.13651e-05
8.34609e-05
7.33095e-05
6.13965e-05
4.8293e-05
3.46283e-05
2.10595e-05
8.23926e-06
-3.21524e-06
-1.27525e-05
-1.99132e-05
-2.43524e-05
-2.58563e-05
-2.43524e-05
-1.99132e-05
-1.27525e-05
-3.21524e-06
8.23926e-06
2.10595e-05
3.46283e-05
4.8293e-05
6.13965e-05
7.33095e-05
8.34609e-05
9.13651e-05
9.6646e-05
9.90549e-05
9.84828e-05
9.49653e-05
8.86815e-05
7.99444e-05
6.91867e-05
5.69389e-05
4.3804e-05
3.04281e-05
1.74688e-05
5.56359e-06
-4.7017e-06
-1.2821e-05
-1.83926e-05
-2.11392e-05
-2.09206e-05
-1.77414e-05
-1.17503e-05
-3.23267e-06
7.40269e-06
1.9644e-05
3.2901e-05
4.65342e-05
5.98852e-05
7.23097e-05
8.3208e-05
9.20546e-05
9.84238e-05
0.00010201
0.000102644
0.000100299
9.50936e-05
8.72851e-05
7.72578e-05
6.55037e-05
5.2599e-05
3.91754e-05
2.58901e-05
1.33934e-05
2.29697e-06
-6.85553e-06
-1.36152e-05
-1.76498e-05
-1.87596e-05
-1.68873e-05
-1.21211e-05
-4.68961e-06
5.04833e-06
1.66218e-05
2.94703e-05
4.29714e-05
5.64708e-05
6.93142e-05
8.08791e-05
9.06053e-05
9.80221e-05
0.000102771
0.000104623
0.000103491
9.94331e-05
9.26481e-05
8.34694e-05
7.23461e-05
5.98222e-05
4.65099e-05
3.30599e-05
2.01294e-05
8.35077e-06
-1.69981e-06
-9.53004e-06
-1.47555e-05
-1.71186e-05
-1.65006e-05
-1.29277e-05
-6.56989e-06
2.2677e-06
1.31595e-05
2.55801e-05
3.89303e-05
5.25656e-05
6.58282e-05
7.80787e-05
8.87273e-05
9.72625e-05
0.000103276
0.000106483
0.000106735
0.000104028
9.85024e-05
9.04357e-05
8.02299e-05
6.83909e-05
5.55047e-05
4.22084e-05
2.9159e-05
1.70021e-05
6.33994e-06
-2.2979e-06
-8.48001e-06
-1.18943e-05
-1.23631e-05
-9.85213e-06
-4.47162e-06
3.52846e-06
1.37708e-05
2.57688e-05
3.89504e-05
5.26854e-05
6.63162e-05
7.91895e-05
9.06879e-05
0.000100259
0.000107445
0.000111899
0.00016318
0.000160521
0.000152671
0.000140008
0.00012314
0.000102878
8.01941e-05
5.61776e-05
3.19806e-05
8.76243e-06
-1.2366e-05
-3.03961e-05
-4.44704e-05
-5.39237e-05
-5.83158e-05
-5.74523e-05
-5.13942e-05
-4.04546e-05
-2.51836e-05
-6.34166e-06
1.51379e-05
3.81938e-05
6.1689e-05
8.44654e-05
0.000105401
0.000123464
0.000137762
0.000147588
0.000152453
0.00015211
0.000146566
0.000136081
0.000121159
0.000102518
8.1059e-05
5.78195e-05
3.39257e-05
1.05356e-05
-1.12166e-05
-3.02759e-05
-4.57179e-05
-5.67938e-05
-6.29669e-05
-6.39388e-05
-5.96638e-05
-5.03514e-05
-3.64562e-05
-1.86554e-05
2.18367e-06
2.5046e-05
4.8818e-05
7.23419e-05
9.44722e-05
0.000114131
0.00013036
0.000142369
0.000149572
0.000151617
0.000148404
0.000140086
0.000127067
0.000109978
8.96496e-05
6.70677e-05
4.33291e-05
1.95863e-05
-3.00788e-06
-2.3357e-05
-4.04737e-05
-5.35284e-05
-6.18888e-05
-6.51518e-05
-6.31618e-05
-5.60194e-05
-4.40758e-05
-2.7916e-05
-8.33028e-06
1.37244e-05
3.71707e-05
6.08636e-05
8.36459e-05
0.000104405
0.000122126
0.000135941
0.000145176
0.000149374
0.000148327
0.000142082
0.000130936
0.000115428
9.63052e-05
7.44941e-05
5.10498e-05
2.71072e-05
3.82521e-06
-1.76696e-05
-3.63379e-05
-5.12782e-05
-6.17704e-05
-6.73113e-05
-6.76389e-05
-6.2745e-05
-5.28758e-05
-3.85197e-05
-2.03839e-05
6.40354e-07
2.3521e-05
4.71354e-05
7.03248e-05
9.19508e-05
0.000110951
0.00012639
0.000137505
0.000143744
0.000144791
0.000140583
0.000131311
0.000117413
9.95518e-05
7.85825e-05
5.55117e-05
3.14483e-05
7.55042e-06
-1.50313e-05
-3.5209e-05
-5.20104e-05
-6.46255e-05
-7.24464e-05
-7.5096e-05
-7.24464e-05
-6.46255e-05
-5.20104e-05
-3.5209e-05
-1.50313e-05
7.55042e-06
3.14483e-05
5.55117e-05
7.85825e-05
9.95518e-05
0.000117413
0.000131311
0.000140583
0.000144791
0.000143744
0.000137505
0.00012639
0.000110951
9.19508e-05
7.03248e-05
4.71354e-05
2.3521e-05
6.40354e-07
-2.03839e-05
-3.85197e-05
-5.28758e-05
-6.2745e-05
-6.76389e-05
-6.73113e-05
-6.17704e-05
-5.12782e-05
-3.63379e-05
-1.76696e-05
3.82521e-06
2.71072e-05
5.10498e-05
7.44941e-05
9.63052e-05
0.000115428
0.000130936
0.000142082
0.000148327
0.000149374
0.000145176
0.000135941
0.000122126
0.000104405
8.36459e-05
6.08636e-05
3.71707e-05
1.37244e-05
-8.33028e-06
-2.7916e-05
-4.40758e-05
-5.60194e-05
-6.31618e-05
-6.51518e-05
-6.18888e-05
-5.35284e-05
-4.04737e-05
-2.3357e-05
-3.00788e-06
1.95863e-05
4.33291e-05
6.70677e-05
8.96496e-05
0.000109978
0.000127067
0.000140086
0.000148404
0.000151617
0.000149572
0.000142369
0.00013036
0.000114131
9.44722e-05
7.23419e-05
4.8818e-05
2.5046e-05
2.18367e-06
-1.86554e-05
-3.64562e-05
-5.03514e-05
-5.96638e-05
-6.39388e-05
-6.29669e-05
-5.67938e-05
-4.57179e-05
-3.02759e-05
-1.12166e-05
1.05356e-05
3.39257e-05
5.78195e-05
8.1059e-05
0.000102518
0.000121159
0.000136081
0.000146566
0.00015211
0.000152453
0.000147588
0.000137762
0.000123464
0.000105401
8.44654e-05
6.1689e-05
3.81938e-05
1.51379e-05
-6.34166e-06
-2.51836e-05
-4.04546e-05
-5.13942e-05
-5.74523e-05
-5.83158e-05
-5.39237e-05
-4.44704e-05
-3.03961e-05
-1.2366e-05
8.76243e-06
3.19806e-05
5.61776e-05
8.01941e-05
0.000102878
0.00012314
0.000140008
0.000152671
0.000160521
0.000234832
0.000230496
0.000217697
0.000197051
0.000169549
0.000136515
9.95347e-05
6.0385e-05
2.09446e-05
-1.68954e-05
-5.1323e-05
-8.06934e-05
-0.000103608
-0.000118983
-0.000126099
-0.00012464
-0.000114706
-9.6807e-05
-7.184e-05
-4.10447e-05
-5.94292e-06
3.17354e-05
7.01365e-05
0.000107373
0.000141615
0.000171181
0.000194617
0.00021077
0.000218842
0.000218431
0.000209547
0.000192616
0.000168455
0.000138234
0.000103422
6.57084e-05
2.69273e-05
-1.10352e-05
-4.63318e-05
-7.72444e-05
-0.000102268
-0.000120182
-0.000130115
-0.000131579
-0.000124502
-0.000109224
-8.64884e-05
-5.73971e-05
-2.33639e-05
1.39574e-05
5.27528e-05
9.11361e-05
0.000127241
0.000159312
0.000185788
0.000205383
0.000217142
0.000220492
0.00021527
0.000201727
0.000180523
0.000152685
0.000119565
8.27735e-05
4.40959e-05
5.411e-06
-3.14028e-05
-6.45585e-05
-9.2447e-05
-0.000113716
-0.000127335
-0.000132647
-0.000129398
-0.000117751
-9.82778e-05
-7.19315e-05
-3.99991e-05
-4.03945e-06
3.41924e-05
7.2831e-05
0.000109991
0.00014386
0.000172783
0.000195349
0.000210455
0.00021736
0.000215722
0.000205618
0.000187532
0.000162339
0.000131261
9.58022e-05
5.76835e-05
1.87533e-05
-1.91004e-05
-5.40422e-05
-8.43786e-05
-0.000108641
-0.000125655
-0.000134603
-0.000135055
-0.000126999
-0.000110836
-8.73622e-05
-5.7729e-05
-2.33893e-05
1.39749e-05
5.25339e-05
9.03989e-05
0.000125714
0.000156748
0.000181974
0.000200151
0.000210376
0.000212135
0.000205323
0.000190252
0.000167636
0.000138555