<?xml version="1.0"?>
<VTKFile type="UnstructuredGrid" version="0.1" byte_order="LittleEndian">
<UnstructuredGrid>
<Piece NumberOfPoints="9344" NumberOfCells="9216">
<Points>
<DataArray type="Float64" NumberOfComponents="3" format="ascii">
5.19461 0 0
5.19461 2.73701e-07 0
5.19461 5.46744e-07 0
5.19461 8.18471e-07 0
5.19461 1.08823e-06 0
5.19461 1.35536e-06 0
5.19461 1.61924e-06 0
5.19461 1.87922e-06 0
5.19461 2.13467e-06 0
5.19461 2.38498e-06 0
5.19461 2.62956e-06 0
5.19461 2.8678e-06 0
5.19461 3.09914e-06 0
5.19461 3.32302e-06 0
5.19461 3.5389e-06 0
5.19461 3.74626e-06 0
5.19461 3.9446e-06 0
5.19461 4.13344e-06 0
5.19461 4.31233e-06 0
5.19461 4.48084e-06 0
5.19461 4.63856e-06 0
5.19461 4.7851e-06 0
5.19461 4.92013e-06 0
5.19461 5.04331e-06 0
5.19461 5.15434e-06 0
5.19461 5.25296e-06 0
5.19461 5.33893e-06 0
5.19461 5.41204e-06 0
5.19461 5.47211e-06 0
5.19461 5.519e-06 0
5.19461 5.5526e-06 0
5.19461 5.57282e-06 0
5.19461 5.57962e-06 0
5.19461 5.57298e-06 0
5.19461 5.55291e-06 0
5.19461 5.51946e-06 0
5.19461 5.47272e-06 0
5.19461 5.41278e-06 0
5.19461 5.33981e-06 0
5.1946 5.25396e-06 0
5.1946 5.15546e-06 0
5.1946 5.04453e-06 0
5.1946 4.92145e-06 0
5.1946 4.7865e-06 0
5.1946 4.64002e-06 0
5.1946 4.48235e-06 0
5.1946 4.31388e-06 0
5.1946 4.13502e-06 0
5.1946 3.94618e-06 0
5.1946 3.74784e-06 0
5.1946 3.54045e-06 0
5.1946 3.32454e-06 0
5.1946 3.10061e-06 0
5.1946 2.8692e-06 0
5.1946 2.63088e-06 0
5.1946 2.38621e-06 0
5.1946 2.13579e-06 0
5.1946 1.88022e-06 0
5.1946 1.62012e-06 0
5.1946 1.35611e-06 0
5.1946 1.08883e-06 0
5.1946 8.18931e-07 0
5.1946 5.47053e-07 0
5.1946 2.73857e-07 0
5.1946 6.83501e-22 0
5.1946 -2.73857e-07 0
5.1946 -5.47053e-07 0
5.1946 -8.18931e-07 0
5.1946 -1.08883e-06 0
5.1946 -1.35611e-06 0
5.1946 -1.62012e-06 0
5.1946 -1.88022e-06 0
5.1946 -2.13579e-06 0
5.1946 -2.38621e-06 0
5.1946 -2.63088e-06 0
5.1946 -2.8692e-06 0
5.1946 -3.10061e-06 0
5.1946 -3.32454e-06 0
5.1946 -3.54045e-06 0
5.1946 -3.74784e-06 0
5.1946 -3.94618e-06 0
5.1946 -4.13502e-06 0
5.1946 -4.31388e-06 0
5.1946 -4.48235e-06 0
5.1946 -4.64002e-06 0
5.1946 -4.7865e-06 0
5.1946 -4.92145e-06 0
5.1946 -5.04453e-06 0
5.1946 -5.15546e-06 0
5.1946 -5.25396e-06 0
5.19461 -5.33981e-06 0
5.19461 -5.41278e-06 0
5.19461 -5.47272e-06 0
5.19461 -5.51946e-06 0
5.19461 -5.55291e-06 0
5.19461 -5.57298e-06 0
5.19461 -5.57962e-06 0
5.19461 -5.57282e-06 0
5.19461 -5.5526e-06 0
5.19461 -5.519e-06 0
5.19461 -5.47211e-06 0
5.19461 -5.41204e-06 0
5.19461 -5.33893e-06 0
5.19461 -5.25296e-06 0
5.19461 -5.15434e-06 0
5.19461 -5.04331e-06 0
5.19461 -4.92013e-06 0
5.19461 -4.7851e-06 0
5.19461 -4.63856e-06 0
5.19461 -4.48084e-06 0
5.19461 -4.31233e-06 0
5.19461 -4.13344e-06 0
5.19461 -3.9446e-06 0
5.19461 -3.74626e-06 0
5.19461 -3.5389e-06 0
5.19461 -3.32302e-06 0
5.19461 -3.09914e-06 0
5.19461 -2.8678e-06 0
5.19461 -2.62956e-06 0
5.19461 -2.38498e-06 0
5.19461 -2.13467e-06 0
5.19461 -1.87922e-06 0
5.19461 -1.61924e-06 0
5.19461 -1.35536e-06 0
5.19461 -1.08823e-06 0
5.19461 -8.18471e-07 0
5.19461 -5.46744e-07 0
5.19461 -2.73701e-07 0
5.20731 0 0
5.20729 0.000621668 0
5.20724 0.00124186 0
5.20717 0.00185911 0
5.20706 0.00247194 0
5.20692 0.00307891 0
5.20675 0.00367856 0
5.20656 0.00426949 0
5.20633 0.00485027 0
5.20607 0.00541953 0
5.20579 0.00597591 0
5.20548 0.00651809 0
5.20514 0.00704476 0
5.20478 0.00755468 0
5.20439 0.00804662 0
5.20398 0.00851939 0
5.20355 0.00897188 0
5.20309 0.00940297 0
5.20261 0.00981165 0
5.20212 0.0101969 0
5.2016 0.0105578 0
5.20107 0.0108935 0
5.20053 0.0112032 0
5.19997 0.011486 0
5.19939 0.0117414 0
5.19881 0.0119686 0
5.19821 0.0121672 0
5.19761 0.0123365 0
5.197 0.0124763 0
5.19638 0.0125861 0
5.19576 0.0126656 0
5.19514 0.0127147 0
5.19451 0.0127331 0
5.19389 0.0127209 0
5.19326 0.012678 0
5.19264 0.0126045 0
5.19203 0.0125006 0
5.19142 0.0123665 0
5.19082 0.0122025 0
5.19023 0.012009 0
5.18965 0.0117864 0
5.18908 0.0115352 0
5.18852 0.011256 0
5.18798 0.0109496 0
5.18746 0.0106166 0
5.18695 0.0102578 0
5.18646 0.00987402 0
5.18599 0.00946626 0
5.18554 0.00903547 0
5.18511 0.00858268 0
5.18471 0.00810899 0
5.18432 0.00761554 0
5.18397 0.00710352 0
5.18364 0.00657417 0
5.18333 0.00602879 0
5.18305 0.00546869 0
5.1828 0.00489524 0
5.18258 0.00430983 0
5.18238 0.00371389 0
5.18222 0.00310888 0
5.18208 0.00249628 0
5.18198 0.00187757 0
5.1819 0.00125427 0
5.18186 0.000627901 0
5.18184 1.56715e-18 0
5.18186 -0.000627901 0
5.1819 -0.00125427 0
5.18198 -0.00187757 0
5.18208 -0.00249628 0
5.18222 -0.00310888 0
5.18238 -0.00371389 0
5.18258 -0.00430983 0
5.1828 -0.00489524 0
5.18305 -0.00546869 0
5.18333 -0.00602879 0
5.18364 -0.00657417 0
5.18397 -0.00710352 0
5.18432 -0.00761554 0
5.18471 -0.00810899 0
5.18511 -0.00858268 0
5.18554 -0.00903547 0
5.18599 -0.00946626 0
5.18646 -0.00987402 0
5.18695 -0.0102578 0
5.18746 -0.0106166 0
5.18798 -0.0109496 0
5.18852 -0.011256 0
5.18908 -0.0115352 0
5.18965 -0.0117864 0
5.19023 -0.012009 0
5.19082 -0.0122025 0
5.19142 -0.0123665 0
5.19203 -0.0125006 0
5.19264 -0.0126045 0
5.19326 -0.012678 0
5.19389 -0.0127209 0
5.19451 -0.0127331 0
5.19514 -0.0127147 0
5.19576 -0.0126656 0
5.19638 -0.0125861 0
5.197 -0.0124763 0
5.19761 -0.0123365 0
5.19821 -0.0121672 0
5.19881 -0.0119686 0
5.19939 -0.0117414 0
5.19997 -0.011486 0
5.20053 -0.0112032 0
5.20107 -0.0108935 0
5.2016 -0.0105578 0
5.20212 -0.0101969 0
5.20261 -0.00981165 0
5.20309 -0.00940297 0
5.20355 -0.00897188 0
5.20398 -0.00851939 0
5.20439 -0.00804662 0
5.20478 -0.00755468 0
5.20514 -0.00704476 0
5.20548 -0.00651809 0
5.20579 -0.00597591 0
5.20607 -0.00541953 0
5.20633 -0.00485027 0
5.20656 -0.00426949 0
5.20675 -0.00367856 0
5.20692 -0.00307891 0
5.20706 -0.00247194 0
5.20717 -0.00185911 0
5.20724 -0.00124186 0
5.20729 -0.000621668 0
5.21994 0 0
5.21991 0.00123709 0
5.21982 0.00247129 0
5.21966 0.00369971 0
5.21945 0.00491949 0
5.21917 0.00612777 0
5.21883 0.00732172 0
5.21843 0.00849854 0
5.21797 0.00965547 0
5.21745 0.0107898 0
5.21688 0.0118988 0
5.21625 0.0129799 0
5.21557 0.0140306 0
5.21484 0.0150483 0
5.21406 0.0160307 0
5.21323 0.0169753 0
5.21236 0.0178799 0
5.21144 0.0187424 0
5.21048 0.0195606 0
5.20948 0.0203327 0
5.20845 0.0210566 0
5.20738 0.0217306 0
5.20629 0.0223531 0
5.20516 0.0229225 0
5.20401 0.0234374 0
5.20283 0.0238965 0
5.20164 0.0242986 0
5.20043 0.0246426 0
5.1992 0.0249278 0
5.19797 0.0251532 0
5.19672 0.0253183 0
5.19547 0.0254226 0
5.19422 0.0254657 0
5.19298 0.0254475 0
5.19173 0.0253678 0
5.19049 0.0252269 0
5.18927 0.025025 0
5.18805 0.0247624 0
5.18685 0.0244397 0
5.18567 0.0240577 0
5.18452 0.0236171 0
5.18338 0.0231189 0
5.18228 0.0225644 0
5.1812 0.0219547 0
5.18015 0.0212913 0
5.17914 0.0205758 0
5.17817 0.0198098 0
5.17724 0.0189953 0
5.17634 0.018134 0
5.1755 0.0172281 0
5.17469 0.0162799 0
5.17393 0.0152915 0
5.17323 0.0142653 0
5.17257 0.013204 0
5.17196 0.0121101 0
5.17141 0.0109862 0
5.17091 0.00983513 0
5.17047 0.00865972 0
5.17009 0.00746288 0
5.16976 0.00624754 0
5.16949 0.00501672 0
5.16928 0.00377347 0
5.16913 0.00252086 0
5.16904 0.00126199 0
5.16901 3.14976e-18 0
5.16904 -0.00126199 0
5.16913 -0.00252086 0
5.16928 -0.00377347 0
5.16949 -0.00501672 0
5.16976 -0.00624754 0
5.17009 -0.00746288 0
5.17047 -0.00865972 0
5.17091 -0.00983513 0
5.17141 -0.0109862 0
5.17196 -0.0121101 0
5.17257 -0.013204 0
5.17323 -0.0142653 0
5.17393 -0.0152915 0
5.17469 -0.0162799 0
5.1755 -0.0172281 0
5.17634 -0.018134 0
5.17724 -0.0189953 0
5.17817 -0.0198098 0
5.17914 -0.0205758 0
5.18015 -0.0212913 0
5.1812 -0.0219547 0
5.18228 -0.0225644 0
5.18338 -0.0231189 0
5.18452 -0.0236171 0
5.18567 -0.0240577 0
5.18685 -0.0244397 0
5.18805 -0.0247624 0
5.18927 -0.025025 0
5.19049 -0.0252269 0
5.19173 -0.0253678 0
5.19298 -0.0254475 0
5.19422 -0.0254657 0
5.19547 -0.0254226 0
5.19672 -0.0253183 0
5.19797 -0.0251532 0
5.1992 -0.0249278 0
5.20043 -0.0246426 0
5.20164 -0.0242986 0
5.20283 -0.0238965 0
5.20401 -0.0234374 0
5.20516 -0.0229225 0
5.20629 -0.0223531 0
5.20738 -0.0217306 0
5.20845 -0.0210566 0
5.20948 -0.0203327 0
5.21048 -0.0195606 0
5.21144 -0.0187424 0
5.21236 -0.0178799 0
5.21323 -0.0169753 0
5.21406 -0.0160307 0
5.21484 -0.0150483 0
5.21557 -0.0140306 0
5.21625 -0.0129799 0
5.21688 -0.0118988 0
5.21745 -0.0107898 0
5.21797 -0.00965547 0
5.21843 -0.00849854 0
5.21883 -0.00732172 0
5.21917 -0.00612777 0
5.21945 -0.00491949 0
5.21966 -0.00369971 0
5.21982 -0.00247129 0
5.21991 -0.00123709 0
5.23252 0 0
5.23248 0.00184658 0
5.23233 0.00368892 0
5.2321 0.00552278 0
5.23177 0.00734393 0
5.23135 0.00914817 0
5.23083 0.0109314 0
5.23023 0.0126893 0
5.22953 0.0144181 0
5.22875 0.0161135 0
5.22789 0.0177718 0
5.22694 0.0193889 0
5.22591 0.0209611 0
5.2248 0.0224848 0
5.22362 0.0239563 0
5.22237 0.025372 0
5.22105 0.0267287 0
5.21966 0.0280231 0
5.21822 0.029252 0
5.21671 0.0304125 0
5.21515 0.0315017 0
5.21354 0.0325169 0
5.21188 0.0334556 0
5.21019 0.0343154 0
5.20845 0.0350941 0
5.20668 0.0357897 0
5.20489 0.0364005 0
5.20307 0.0369247 0
5.20122 0.0373609 0
5.19937 0.0377078 0
5.1975 0.0379646 0
5.19562 0.0381303 0
5.19375 0.0382043 0
5.19188 0.0381863 0
5.19001 0.0380761 0
5.18816 0.0378738 0
5.18632 0.0375796 0
5.1845 0.0371941 0
5.18271 0.036718 0
5.18094 0.0361523 0
5.17921 0.0354983 0
5.17752 0.0347572 0
5.17587 0.0339308 0
5.17426 0.033021 0
5.1727 0.0320298 0
5.17119 0.0309595 0
5.16974 0.0298126 0
5.16835 0.0285919 0
5.16702 0.0273003 0
5.16575 0.0259409 0
5.16456 0.0245168 0
5.16343 0.0230318 0
5.16238 0.0214892 0
5.1614 0.019893 0
5.1605 0.018247 0
5.15968 0.0165554 0
5.15894 0.0148222 0
5.15828 0.0130519 0
5.15771 0.0112489 0
5.15723 0.00941761 0
5.15683 0.00756266 0
5.15652 0.0056887 0
5.15629 0.00380043 0
5.15616 0.00190261 0
5.15612 4.74868e-18 0
5.15616 -0.00190261 0
5.15629 -0.00380043 0
5.15652 -0.0056887 0
5.15683 -0.00756266 0
5.15723 -0.00941761 0
5.15771 -0.0112489 0
5.15828 -0.0130519 0
5.15894 -0.0148222 0
5.15968 -0.0165554 0
5.1605 -0.018247 0
5.1614 -0.019893 0
5.16238 -0.0214892 0
5.16343 -0.0230318 0
5.16456 -0.0245168 0
5.16575 -0.0259409 0
5.16702 -0.0273003 0
5.16835 -0.0285919 0
[...]
<PointData Scalars="FunctionValues">
<DataArray type="Float32" Name="FunctionValues" format="ascii">-5.053e-17
6.16775e-07
1.23205e-06
1.84432e-06
2.45211e-06
3.05392e-06
3.64831e-06
4.23382e-06
4.80902e-06
5.37253e-06
5.92297e-06
6.459e-06
6.97933e-06
7.48269e-06
7.96787e-06
8.43369e-06
8.87902e-06
9.30279e-06
9.70398e-06
1.00816e-05
1.04348e-05
1.07627e-05
1.10645e-05
1.13395e-05
1.1587e-05
1.18065e-05
1.19975e-05
1.21594e-05
1.22919e-05
1.23948e-05
1.24677e-05
1.25105e-05
1.25232e-05
1.25057e-05
1.24581e-05
1.23805e-05
1.22731e-05
1.21362e-05
1.19701e-05
1.17753e-05
1.15522e-05
1.13014e-05
1.10235e-05
1.07193e-05
1.03893e-05
1.00345e-05
9.65568e-06
9.25379e-06
8.82978e-06
8.38469e-06
7.91959e-06
7.43559e-06
6.93386e-06
6.4156e-06
5.88206e-06
5.3345e-06
4.77424e-06
4.20261e-06
3.62099e-06
3.03074e-06
2.43329e-06
1.83005e-06
1.22246e-06
6.11955e-07
-5.05148e-17
-6.11955e-07
-1.22246e-06
-1.83005e-06
-2.43329e-06
-3.03074e-06
-3.62099e-06
-4.20261e-06
-4.77424e-06
-5.3345e-06
-5.88206e-06
-6.4156e-06
-6.93386e-06
-7.43559e-06
-7.91959e-06
-8.38469e-06
-8.82978e-06
-9.25379e-06
-9.65568e-06
-1.00345e-05
-1.03893e-05
-1.07193e-05
-1.10235e-05
-1.13014e-05
-1.15522e-05
-1.17753e-05
-1.19701e-05
-1.21362e-05
-1.22731e-05
-1.23805e-05
-1.24581e-05
-1.25057e-05
-1.25232e-05
-1.25105e-05
-1.24677e-05
-1.23948e-05
-1.22919e-05
-1.21594e-05
-1.19975e-05
-1.18065e-05
-1.1587e-05
-1.13395e-05
-1.10645e-05
-1.07627e-05
-1.04348e-05
-1.00816e-05
-9.70398e-06
-9.30279e-06
-8.87902e-06
-8.43369e-06
-7.96787e-06
-7.48269e-06
-6.97933e-06
-6.459e-06
-5.92297e-06
-5.37253e-06
-4.80902e-06
-4.23382e-06
-3.64831e-06
-3.05392e-06
-2.45211e-06
-1.84432e-06
-1.23205e-06
-6.16775e-07
-2.49365e-16
0.00139686
0.00279043
0.00417742
0.00555456
0.00691859
0.00826629
0.00959446
0.0109
0.0121797
0.0134305
0.0146496
0.0158339
0.0169806
0.0180869
0.0191502
0.0201679
0.0211374
0.0220565
0.0229229
0.0237345
0.0244891
0.0251851
0.0258206
0.0263941
0.0269041
0.0273493
0.0277287
0.0280412
0.0282861
0.0284627
0.0285706
0.0286094
0.028579
0.0284795
0.0283112
0.0280743
0.0277695
0.0273975
0.0269591
0.0264555
0.0258879
0.0252576
0.0245662
0.0238154
0.0230069
0.0221428
0.0212252
0.0202563
0.0192384
0.0181741
0.0170658
0.0159164
0.0147285
0.0135052
0.0122492
0.0109637
0.00965174
0.00831654
0.00696129
0.00558926
0.00420377
0.00280815
0.00140577
-4.05887e-16
-0.00140577
-0.00280815
-0.00420377
-0.00558926
-0.00696129
-0.00831654
-0.00965174
-0.0109637
-0.0122492
-0.0135052
-0.0147285
-0.0159164
-0.0170658
-0.0181741
-0.0192384
-0.0202563
-0.0212252
-0.0221428
-0.0230069
-0.0238154
-0.0245662
-0.0252576
-0.0258879
-0.0264555
-0.0269591
-0.0273975
-0.0277695
-0.0280743
-0.0283112
-0.0284795
-0.028579
-0.0286094
-0.0285706
-0.0284627
-0.0282861
-0.0280412
-0.0277287
-0.0273493
-0.0269041
-0.0263941
-0.0258206
-0.0251851
-0.0244891
-0.0237345
-0.0229229
-0.0220565
-0.0211374
-0.0201679
-0.0191502
-0.0180869
-0.0169806
-0.0158339
-0.0146496
-0.0134305
-0.0121797
-0.0109
-0.00959446
-0.00826629
-0.00691859
-0.00555456
-0.00417742
-0.00279043
-0.00139686
-4.83852e-16
0.00273642
0.00546667
0.00818459
0.010884
0.0135589
0.016203
0.0188103
0.0213748
0.0238905
0.0263515
0.028752
0.0310863
0.0333486
0.0355335
0.0376356
0.0396496
0.0415706
0.0433936
0.045114
0.0467273
0.0482294
0.0496162
0.0508841
0.0520297
0.05305
0.0539422
0.0547038
0.0553327
0.0558272
0.0561858
0.0564076
0.0564919
0.0564383
0.056247
0.0559183
0.0554531
0.0548525
0.054118
0.0532516
0.0522553
0.0511318
0.0498839
0.0485148
0.047028
0.0454272
0.0437166
0.0419002
0.0399829
0.0379692
0.0358642
0.0336732
0.0314014
0.0290545
0.0266382
0.0241583
0.0216209
0.0190319
0.0163978
0.0137247
0.011019
0.00828716
0.0055357
0.00277113
-4.84518e-16
-0.00277113
-0.0055357
-0.00828716
-0.011019
-0.0137247
-0.0163978
-0.0190319
-0.0216209
-0.0241583
-0.0266382
-0.0290545
-0.0314014
-0.0336732
-0.0358642
-0.0379692
-0.0399829
-0.0419002
-0.0437166
-0.0454272
-0.047028
-0.0485148
-0.0498839
-0.0511318
-0.0522553
-0.0532516
-0.054118
-0.0548525
-0.0554531
-0.0559183
-0.056247
-0.0564383
-0.0564919
-0.0564076
-0.0561858
-0.0558272
-0.0553327
-0.0547038
-0.0539422
-0.05305
-0.0520297
-0.0508841
-0.0496162
-0.0482294
-0.0467273
-0.045114
-0.0433936
-0.0415706
-0.0396496
-0.0376356
-0.0355335
-0.0333486
-0.0310863
-0.028752
-0.0263515
-0.0238905
-0.0213748
-0.0188103
-0.016203
-0.0135589
-0.010884
-0.00818459
-0.00546667
-0.00273642
-5.79175e-16
0.00396665
0.00792504
0.0118669
0.015784
0.0196679
0.0235104
0.0273031
0.0310374
0.0347051
0.0382977
0.0418066
0.0452236
0.0485401
0.0517478
0.0548387
0.0578045
0.0606374
0.0633298
0.0658742
0.0682635
0.0704909
0.0725501
0.074435
0.0761401
0.0776604
0.0789913
0.0801289
0.0810696
0.0818107
0.0823499
0.0826854
0.0828162
0.082742
0.0824627
0.0819793
0.0812929
0.0804057
0.0793201
0.078039
0.0765663
0.0749058
0.0730623
0.0710408
0.0688468
0.0664862
0.0639654
0.0612909
0.0584699
0.0555095
0.0524175
0.0492016
0.0458698
0.0424306
0.0388922
0.0352634
0.0315527
0.0277691
0.0239215
0.0200189
0.0160704
0.012085
0.00807204
0.00404063
-4.04711e-16
-0.00404063
-0.00807204
-0.012085
-0.0160704
-0.0200189
-0.0239215
-0.0277691
-0.0315527
-0.0352634
-0.0388922
-0.0424306
-0.0458698
-0.0492016
-0.0524175
-0.0555095
-0.0584699
-0.0612909
-0.0639654
-0.0664862
-0.0688468
-0.0710408
-0.0730623
-0.0749058
-0.0765663
-0.078039
-0.0793201
-0.0804057
-0.0812929
-0.0819793
-0.0824627
-0.082742
-0.0828162
-0.0826854
-0.0823499
-0.0818107
-0.0810696
-0.0801289
-0.0789913
-0.0776604
-0.0761401
-0.074435
-0.0725501
-0.0704909
-0.0682635
-0.0658742
-0.0633298
-0.0606374
-0.0578045
-0.0548387
-0.0517478
-0.0485401
-0.0452236
-0.0418066
-0.0382977
-0.0347051
-0.0310374
-0.0273031
-0.0235104
-0.0196679
-0.015784
-0.0118669
-0.00792504
-0.00396665
-6.80443e-16
0.00504168
0.0100742
0.0150884
0.0200749
0.0250243
0.0299269
0.0347728
0.0395519
0.0442539
0.048868
0.0533835
0.0577893
0.0620742
0.0662269
0.0702361
0.0740904
0.0777787
0.08129
0.0846136
0.0877391
0.0906566
0.0933567
0.0958308
0.0980706
0.100069
0.101819
0.103315
0.104552
0.105526
0.106234
0.106674
0.106844
0.106744
0.106374
0.105736
0.104833
0.103666
0.10224
0.100559
0.0986294
0.0964564
0.0940469
0.091408
0.0885477
0.0854743
0.0821966
0.0787239
0.0750658
0.0712323
0.0672336
0.0630803
0.058783
0.0543526
0.0498
0.0451363
0.0403726
0.0355201
0.0305898
0.0255931
0.0205409
0.0154444
0.0103147
0.00516287
-3.31523e-16
-0.00516287
-0.0103147
-0.0154444
-0.0205409
-0.0255931
-0.0305898
-0.0355201
-0.0403726
-0.0451363
-0.0498
-0.0543526
-0.058783
-0.0630803
-0.0672336
-0.0712323
-0.0750658
-0.0787239
-0.0821966
-0.0854743
-0.0885477
-0.091408
-0.0940469
-0.0964564
-0.0986294
-0.100559
-0.10224
-0.103666
-0.104833
-0.105736
-0.106374
-0.106744
-0.106844
-0.106674
-0.106234
-0.105526
-0.104552
-0.103315
-0.101819
-0.100069
-0.0980706
-0.0958308
-0.0933567
-0.0906566
-0.0877391
-0.0846136
-0.08129
-0.0777787
-0.0740904
-0.0702361
-0.0662269
-0.0620742
-0.0577893
-0.0533835
-0.048868
-0.0442539
-0.0395519
-0.0347728
-0.0299269
-0.0250243
-0.0200749
-0.0150884
-0.0100742
-0.00504168
-7.05673e-16
0.00592205
0.0118357
0.0177324
0.0236032
0.029439
0.03523
0.0409658
0.0466354
0.0522271
0.0577284
0.0631263
0.0684071
0.0735564
0.0785595
0.0834015
0.0880671
0.092541
0.0968082
0.100854
0.104664
0.108224
0.111521
0.114544
0.117281
0.119721
0.121857
0.123681
0.125186
0.126366
0.127219
0.127742
0.127933
0.127793
0.127323
0.126524
0.125401
0.123959
0.122202
0.120137
0.117773
0.115116
0.112176
0.108964
0.105489
0.101762
0.0977955
0.0936014
0.0891919
0.08458
0.0797786
0.0748009
0.0696602
0.0643699
0.0589432
0.0533933
0.0477332
0.041976
0.0361343
0.0302207
0.0242475
0.0182269
0.0121709
0.00609131
-2.67594e-16
-0.00609131
-0.0121709
-0.0182269
-0.0242475
-0.0302207
-0.0361343
-0.041976
-0.0477332
-0.0533933
-0.0589432
-0.0643699
-0.0696602
-0.0748009
-0.0797786
-0.08458
-0.0891919
-0.0936014
-0.0977955
-0.101762
-0.105489
-0.108964
-0.112176
-0.115116
-0.117773
-0.120137
-0.122202
-0.123959
-0.125401
-0.126524
-0.127323
-0.127793
-0.127933
-0.127742
-0.127219
-0.126366
-0.125186
-0.123681
-0.121857
-0.119721
-0.117281
-0.114544
-0.111521
-0.108224
-0.104664
-0.100854
-0.0968082
-0.092541
-0.0880671
-0.0834015
-0.0785595
-0.0735564
-0.0684071
-0.0631263
-0.0577284
-0.0522271
-0.0466354
-0.0409658
-0.03523
-0.029439
-0.0236032
-0.0177324
-0.0118357
-0.00592205
-7.01201e-16
0.00657566
0.0131457
0.0197043
0.026245
0.0327604
0.0392422
0.0456807
0.0520651
0.0583828
0.06462
0.0707612
0.0767898
0.0826878
0.0884366
0.0940162
0.0994067
0.104588
0.109539
0.11424
0.118672
0.122816
0.126655
0.130173
0.133356
0.13619
0.138665
0.14077
0.142499
0.143845
0.144806
0.145377
0.14556
0.145355
0.144764
0.143791
0.142443
0.140725
0.138645
0.136212
0.133437
0.130329
0.126902
0.123166
0.119137
0.114827
0.110252
0.105427
0.100368
0.0950888
0.089607
0.0839384
0.0780987
0.0721037
0.0659689
0.0597094
0.0533396
0.0468738
0.0403256
0.0337078
0.0270332
0.0203136
0.0135607
0.00678583
-2.10007e-16
-0.00678583
-0.0135607
-0.0203136
-0.0270332
-0.0337078
-0.0403256
-0.0468738
-0.0533396
-0.0597094
-0.0659689
-0.0721037
-0.0780987
-0.0839384
-0.089607
-0.0950888
-0.100368
-0.105427
-0.110252
-0.114827
-0.119137
-0.123166
-0.126902
-0.130329
-0.133437
-0.136212
-0.138645
-0.140725
-0.142443
-0.143791
-0.144764
-0.145355
-0.14556
-0.145377
-0.144806
-0.143845
-0.142499
-0.14077
-0.138665
-0.13619
-0.133356
-0.130173
-0.126655
-0.122816
-0.118672
-0.11424
-0.109539
-0.104588
-0.0994067
-0.0940162
-0.0884366
-0.0826878
-0.0767898
-0.0707612
-0.06462
-0.0583828
-0.0520651
-0.0456807
-0.0392422
-0.0327604
-0.026245
-0.0197043
-0.0131457
-0.00657566
-6.91368e-16
0.0069785
0.0139568
0.0209342
0.0279088
0.0348775
0.0418349
0.0487736
0.0556837
0.0625524
0.0693647
0.0761027
0.0827461
0.0892724
0.0956577
0.101876
0.107901
0.113706
0.119263
0.124547
0.129531
0.134192
0.138506
0.142455
0.146019
0.149182
0.151933
0.154259
0.156153
0.15761
0.158626
0.159199
0.159332
0.159026
0.158287
0.157121
0.155536
0.15354
0.151145
0.148361
0.145201
0.14168
0.137811
0.13361
0.129095
0.124281
0.119186
0.113831
0.108232
0.10241
0.0963827
0.0901702
0.083791
0.0772634
0.0706048
0.0638322
0.0569612
0.0500067
0.0429822
0.0359003
0.0287724
0.0216091
0.0144201
0.00721417
-1.71904e-16
-0.00721417
-0.0144201
-0.0216091
-0.0287724
-0.0359003
-0.0429822
-0.0500067
-0.0569612
-0.0638322
-0.0706048
-0.0772634
-0.083791
-0.0901702
-0.0963827
-0.10241
-0.108232
-0.113831
-0.119186
-0.124281
-0.129095
-0.13361
-0.137811
-0.14168
-0.145201
-0.148361
-0.151145
-0.15354
-0.155536
-0.157121
-0.158287
-0.159026
-0.159332
-0.159199
-0.158626
-0.15761
-0.156153
-0.154259
-0.151933
-0.149182
-0.146019
-0.142455
-0.138506
-0.134192
-0.129531
-0.124547
-0.119263
-0.113706
-0.107901
-0.101876
-0.0956577
-0.0892724
-0.0827461
-0.0761027
-0.0693647
-0.0625524
-0.0556837
-0.0487736
-0.0418349
-0.0348775
-0.0279088
-0.0209342
-0.0139568
-0.0069785
-6.90794e-16
0.00711523
0.0142387
0.0213777
0.0285379
0.0357224
0.0429311
0.0501601
0.0574016
0.0646433
0.0718686
0.0790567
0.0861828
0.0932186
0.100133
0.106893
0.113463
0.119808
0.125892
0.131682
0.137143
0.142244
0.146959
0.151261
0.155129
0.158545
0.161494
0.163965
0.165951
0.167448
0.168454
0.168971
0.169001
0.168552
0.167631
0.166247
0.164411
0.162135
0.159432
0.156316
0.152802
0.148908
0.14465
0.140046
0.135117
0.129883
0.124364
0.118583
0.112563
0.106325
0.0998942
0.0932915
0.0865395
0.0796592
0.0726708
0.0655925
0.0584414
0.0512322
0.0439779
0.0366897
0.0293764
0.0220456
0.0147029
0.00735315
-1.23461e-16
-0.00735315
-0.0147029
-0.0220456
-0.0293764
-0.0366897
-0.0439779
-0.0512322
-0.0584414
-0.0655925
-0.0726708
-0.0796592
-0.0865395
-0.0932915
-0.0998942
-0.106325
-0.112563
-0.118583
-0.124364
-0.129883
-0.135117
-0.140046
-0.14465
-0.148908
-0.152802
-0.156316
-0.159432
-0.162135
-0.164411
-0.166247
-0.167631
-0.168552
-0.169001
-0.168971
-0.168454
-0.167448
-0.165951
-0.163965
-0.161494
-0.158545
-0.155129
-0.151261
-0.146959
-0.142244
-0.137143
-0.131682
-0.125892
-0.119808
-0.113463
-0.106893
-0.100133
-0.0932186
-0.0861828
-0.0790567
-0.0718686
-0.0646433
-0.0574016
-0.0501601
-0.0429311
-0.0357224
-0.0285379
-0.0213777
-0.0142387
-0.00711523
-6.9652e-16
0.00697927
0.0139787
0.0210169
0.0281102
0.0352705
0.0425052
0.0498156
0.057197
0.0646378
0.0721198
0.0796182
0.0871024
0.0945366
0.10188
0.109091
0.116121
0.122927
0.12946
0.135677
0.141536
0.146998
0.152029
0.156599
0.160682
0.16426
0.167318
0.169845
0.171836
0.173291
0.174211
0.174602
0.174472
0.17383
0.172688
0.17106
0.16896
0.166401
0.163401
0.159976
0.156143
0.151921
0.14733
0.142391
0.137125
0.131556
0.12571
0.11961
0.113285
0.106761
0.100065
0.093224
0.0862645
0.079211
0.0720864
0.0649114
0.0577037
0.0504783
0.0432468
0.0360177
0.0287962
0.0215848
0.0143832
0.0071895
-6.51942e-17
-0.0071895
-0.0143832
-0.0215848
-0.0287962
-0.0360177
-0.0432468
-0.0504783
-0.0577037
-0.0649114
-0.0720864
-0.079211
-0.0862645
-0.093224
-0.100065
-0.106761
-0.113285
-0.11961
-0.12571
-0.131556
-0.137125
-0.142391
-0.14733
-0.151921
-0.156143
-0.159976
-0.163401
-0.166401
-0.16896
-0.17106
-0.172688
-0.17383
-0.174472
-0.174602
-0.174211
-0.173291
-0.171836
-0.169845
-0.167318
-0.16426
-0.160682
-0.156599
-0.152029
-0.146998
-0.141536
-0.135677
-0.12946
-0.122927
-0.116121
-0.109091
-0.10188
-0.0945366
-0.0871024
-0.0796182
-0.0721198
-0.0646378
-0.057197
-0.0498156
-0.0425052
-0.0352705
-0.0281102
-0.0210169
-0.0139787
-0.00697927
-7.19505e-16
0.00657264
0.0131812
0.0198595
0.0266374
0.0335391
0.0405815
0.047773
0.0551126
0.0625898
0.0701842
0.0778659
0.0855967
0.0933306
0.101016
0.108596
0.116012
0.123204
0.130113
0.136682
0.14286
0.148598
0.153856
0.158599
0.1628
0.16644
0.169504
0.171987
0.173887
0.175207
0.175957
0.176148
0.175792
0.174906
0.173506
0.171609
0.169233
0.166396
0.163115
0.159409
0.155297
0.150799
0.145935
0.14073
0.135206
0.129389
0.123309
0.116993
0.110475
0.103784
0.0969548
0.0900188
0.0830075
0.0759503
0.0688741
0.0618024
0.0547545
0.0477454
0.0407848
0.0338778
0.0270242
0.0202196
0.0134555
0.00672028
-9.74272e-18
-0.00672028
-0.0134555
-0.0202196
-0.0270242
-0.0338778
-0.0407848
-0.0477454
-0.0547545
-0.0618024
-0.0688741
-0.0759503
-0.0830075
-0.0900188
-0.0969548
-0.103784
-0.110475
-0.116993
-0.123309
-0.129389
-0.135206
-0.14073
-0.145935
-0.150799
-0.155297
-0.159409
-0.163115
-0.166396
-0.169233
-0.171609
-0.173506
-0.174906
-0.175792
-0.176148
-0.175957
-0.175207
-0.173887
-0.171987
-0.169504
-0.16644
-0.1628
-0.158599
-0.153856
-0.148598
-0.14286
-0.136682
-0.130113
-0.123204
-0.116012
-0.108596
-0.101016
-0.0933306
-0.0855967
-0.0778659
-0.0701842
-0.0625898
-0.0551126
-0.047773
-0.0405815
-0.0335391
-0.0266374
-0.0198595
-0.0131812
-0.00657264
-7.47779e-16
0.00590548
0.0118668
0.0179368
0.024163
0.0305845
0.0372302
0.0441173
0.0512496
0.0586175
0.0661975
0.0739532
0.0818362
0.0897881
0.0977421
0.105626
0.113363
0.120878
0.128095
0.134945
0.141362
0.147291
0.152682
0.157499
0.161714
0.165307
0.168269
0.170599
0.172303
0.173393
0.173885
0.173798
0.173153
0.171973
0.17028
0.168095
0.165439
0.162332
0.158794
0.154843
0.150499
0.145781
0.14071
0.13531
0.129606
0.123626
0.1174
0.110964
0.104352
0.0976035
0.0907571
0.0838523
0.0769272
0.0700177
0.0631562
0.0563702
0.0496816
0.0431054
0.0366496
0.0303148
0.0240941
0.017974
0.011935
0.00595285
4.33951e-17
-0.00595285
-0.011935
-0.017974
-0.0240941
-0.0303148
-0.0366496
-0.0431054
-0.0496816
-0.0563702
-0.0631562
-0.0700177
-0.0769272
-0.0838523
-0.0907571
-0.0976035
-0.104352
-0.110964
-0.1174
-0.123626
-0.129606
-0.13531
-0.14071
-0.145781
-0.150499
-0.154843
-0.158794
-0.162332
-0.165439
-0.168095
-0.17028
-0.171973
-0.173153
-0.173798
-0.173885
-0.173393
-0.172303
-0.170599
-0.168269
-0.165307
-0.161714
-0.157499
-0.152682
-0.147291
-0.141362
-0.134945
-0.128095
-0.120878
-0.113363
-0.105626
-0.0977421
-0.0897881
-0.0818362
-0.0739532
-0.0661975
-0.0586175
-0.0512496
-0.0441173
-0.0372302
-0.0305845
-0.024163
-0.0179368
-0.0118668
-0.00590548
-7.73116e-16
0.00499519
0.0100705
0.0153021
0.0207585
0.0264972
0.0325618
0.0389795
0.0457599
0.0528939
0.0603542
0.0680955
0.0760571
0.0841645
0.0923326
0.100469
0.108478
0.116262
0.123729
0.130793
0.137374
0.143408
0.148839
0.153628
0.157746
0.16118
0.163926
0.165992
0.167394
0.168155
0.168301
0.167862
0.166868
0.16535
0.163336
0.160852
0.157922
0.154566
0.150804
0.146654
0.142133
0.137258
0.132048
0.126527
0.120719
0.114653
0.108363
0.101888
0.0952691
0.0885523
0.0817848
0.0750149
0.0682898
0.0616541
0.0551476
0.0488038
0.0426482
0.0366971
0.0309565
0.0254219
0.0200782
0.0149008
0.00985626
0.00490435
9.21038e-17
-0.00490435
-0.00985626
-0.0149008
-0.0200782
-0.0254219
-0.0309565
-0.0366971
-0.0426482
-0.0488038
-0.0551476
-0.0616541
-0.0682898
-0.0750149
-0.0817848
-0.0885523
-0.0952691
-0.101888
-0.108363
-0.114653
-0.120719
-0.126527
-0.132048
-0.137258
-0.142133
-0.146654
-0.150804
-0.154566
-0.157922
-0.160852
-0.163336
-0.16535
-0.166868
-0.167862
-0.168301
-0.168155
-0.167394
-0.165992
-0.163926
-0.16118
-0.157746
-0.153628
-0.148839
-0.143408
-0.137374
-0.130793
-0.123729
-0.116262
-0.108478
-0.100469
-0.0923326
-0.0841645
-0.0760571
-0.0680955
-0.0603542
-0.0528939
-0.0457599
-0.0389795
-0.0325618
-0.0264972
-0.0207585
-0.0153021
-0.0100705
-0.00499519
-7.94969e-16
0.00386541
0.00783963
0.0120263
0.016519
0.0213966
0.0267198
0.0325277
0.038836
0.0456361
0.0528951
0.0605571
0.0685457
0.0767669
0.0851134
0.0934691
0.101713
0.109727
0.117395
0.124612
0.131288
0.137344
0.142721
0.147378
0.15129
0.154451
0.156866
0.158557
0.159552
0.159888
0.159606
0.158748
0.157355
0.155466
0.153115
0.150334
0.147147
0.143575
0.139635
0.13534
0.130704
0.125741
0.120465
0.114895
0.109055
0.102975
0.0966912
0.0902456
0.0836874
0.0770706
0.0704532
0.0638946
0.0574537
0.0511866
0.0451433
0.0393655
0.0338843
0.0287183
0.023872
0.0193354
0.015084
0.0110795
0.00727167
0.00360075
1.3407e-16
-0.00360075
-0.00727167
-0.0110795
-0.015084
-0.0193354
-0.023872
-0.0287183
-0.0338843
-0.0393655
-0.0451433
-0.0511866
-0.0574537
-0.0638946
-0.0704532
-0.0770706
-0.0836874
-0.0902456
-0.0966912
-0.102975
-0.109055
-0.114895
-0.120465
-0.125741
-0.130704
-0.13534
-0.139635
-0.143575
-0.147147
-0.150334
-0.153115
-0.155466
-0.157355
-0.158748
-0.159606
-0.159888
-0.159552
-0.158557
-0.156866
-0.154451
-0.15129
-0.147378
-0.142721
-0.137344
-0.131288
-0.124612
-0.117395
-0.109727
-0.101713
-0.0934691
-0.0851134
-0.0767669
-0.0685457
-0.0605571
-0.0528951
-0.0456361
-0.038836
-0.0325277
-0.0267198
-0.0213966
-0.016519
-0.0120263
-0.00783963
-0.00386541
-8.18533e-16
0.00254467
0.00523121
0.00819486
0.0115579
0.015424
0.0198731
0.0249576
0.0307002
0.037092
0.0440931
0.0516347
0.0596212
0.0679357
0.0764443
0.0850026
0.0934619
0.101676
0.109505
0.116826
0.123529
0.129529
0.134762
0.139186
0.142785
0.145561
0.147535
0.148743
0.149233
0.149057
0.148274
0.14694
0.14511
0.14283
0.140143
0.137081
0.13367
0.129927
0.125866
0.121493
0.116815
0.111837
0.106569
0.101023
0.0952195
0.0891882
0.0829666
0.0766021
0.0701514
0.0636791
0.0572553
0.0509539
0.0448487
0.0390101
0.0335018
0.0283765
0.0236734
0.0194149
0.0156048
0.0122275
0.00924756
0.00661122
0.0042483
0.00207544
1.73174e-16
-0.00207544
-0.0042483
-0.00661122
-0.00924756
-0.0122275
-0.0156048
-0.0194149
-0.0236734
-0.0283765
-0.0335018
-0.0390101
-0.0448487
-0.0509539
-0.0572553
-0.0636791
-0.0701514
-0.0766021
-0.0829666
-0.0891882
-0.0952195
-0.101023
-0.106569
-0.111837
-0.116815
-0.121493
-0.125866
-0.129927
-0.13367
-0.137081
-0.140143
-0.14283
-0.14511
-0.14694
-0.148274
-0.149057
-0.149233
-0.148743
-0.147535
-0.145561
-0.142785
-0.139186
-0.134762
-0.129529
-0.123529
-0.116826
-0.109505
-0.101676
-0.0934619
-0.0850026
-0.0764443
-0.0679357
-0.0596212
-0.0516347
-0.0440931
-0.037092
-0.0307002
-0.0249576
-0.0198731
-0.015424
-0.0115579
-0.00819486
-0.00523121
-0.00254467
-8.41252e-16
0.00106498
0.00230901
0.00390286
0.00600113
0.00873504
0.0122063
0.0164821
0.0215922
0.0275272
0.0342386
0.0416417
0.049619
0.0580262
0.0666986
0.0754593
0.0841272
0.092525
0.100487