<?xml version="1.0"?>
<VTKFile type="UnstructuredGrid" version="0.1" byte_order="LittleEndian">
<UnstructuredGrid>
<Piece NumberOfPoints="43136" NumberOfCells="43008">
<Points>
<DataArray type="Float64" NumberOfComponents="3" format="ascii">
5.3846e-06 0 0
5.37812e-06 4.90677e-07 0
5.35868e-06 9.80171e-07 0
5.32632e-06 1.4673e-06 0
5.28114e-06 1.9509e-06 0
5.22323e-06 2.4298e-06 0
5.15274e-06 2.90285e-06 0
5.06984e-06 3.3689e-06 0
4.97472e-06 3.82683e-06 0
4.86762e-06 4.27555e-06 0
4.74879e-06 4.71397e-06 0
4.61853e-06 5.14103e-06 0
4.47713e-06 5.5557e-06 0
4.32495e-06 5.95699e-06 0
4.16235e-06 6.34393e-06 0
3.98972e-06 6.71559e-06 0
3.80749e-06 7.07107e-06 0
3.61607e-06 7.40951e-06 0
3.41595e-06 7.7301e-06 0
3.2076e-06 8.03208e-06 0
2.99152e-06 8.3147e-06 0
2.76823e-06 8.57729e-06 0
2.53828e-06 8.81921e-06 0
2.30221e-06 9.03989e-06 0
2.06059e-06 9.2388e-06 0
1.81401e-06 9.41544e-06 0
1.56306e-06 9.5694e-06 0
1.30834e-06 9.70031e-06 0
1.05047e-06 9.80785e-06 0
7.90075e-07 9.89177e-06 0
5.27773e-07 9.95185e-06 0
2.64199e-07 9.98795e-06 0
-1.18343e-11 1e-05 0
-2.64222e-07 9.98795e-06 0
-5.27796e-07 9.95185e-06 0
-7.90099e-07 9.89177e-06 0
-1.0505e-06 9.80785e-06 0
-1.30837e-06 9.70031e-06 0
-1.56308e-06 9.5694e-06 0
-1.81403e-06 9.41544e-06 0
-2.06061e-06 9.2388e-06 0
-2.30223e-06 9.03989e-06 0
-2.5383e-06 8.81921e-06 0
-2.76826e-06 8.57729e-06 0
-2.99154e-06 8.3147e-06 0
-3.20762e-06 8.03208e-06 0
-3.41598e-06 7.7301e-06 0
-3.6161e-06 7.40951e-06 0
-3.80751e-06 7.07107e-06 0
-3.98975e-06 6.71559e-06 0
-4.16238e-06 6.34393e-06 0
-4.32498e-06 5.95699e-06 0
-4.47716e-06 5.5557e-06 0
-4.61855e-06 5.14103e-06 0
-4.74882e-06 4.71397e-06 0
-4.86765e-06 4.27555e-06 0
-4.97475e-06 3.82683e-06 0
-5.06986e-06 3.3689e-06 0
-5.15277e-06 2.90285e-06 0
-5.22326e-06 2.4298e-06 0
-5.28116e-06 1.9509e-06 0
-5.32635e-06 1.4673e-06 0
-5.3587e-06 9.80171e-07 0
-5.37814e-06 4.90677e-07 0
-5.38463e-06 1.22465e-21 0
-5.37814e-06 -4.90677e-07 0
-5.3587e-06 -9.80171e-07 0
-5.32635e-06 -1.4673e-06 0
-5.28116e-06 -1.9509e-06 0
-5.22326e-06 -2.4298e-06 0
-5.15277e-06 -2.90285e-06 0
-5.06986e-06 -3.3689e-06 0
-4.97475e-06 -3.82683e-06 0
-4.86765e-06 -4.27555e-06 0
-4.74882e-06 -4.71397e-06 0
-4.61855e-06 -5.14103e-06 0
-4.47716e-06 -5.5557e-06 0
-4.32498e-06 -5.95699e-06 0
-4.16238e-06 -6.34393e-06 0
-3.98975e-06 -6.71559e-06 0
-3.80751e-06 -7.07107e-06 0
-3.6161e-06 -7.40951e-06 0
-3.41598e-06 -7.7301e-06 0
-3.20762e-06 -8.03208e-06 0
-2.99154e-06 -8.3147e-06 0
-2.76826e-06 -8.57729e-06 0
-2.5383e-06 -8.81921e-06 0
-2.30223e-06 -9.03989e-06 0
-2.06061e-06 -9.2388e-06 0
-1.81403e-06 -9.41544e-06 0
-1.56308e-06 -9.5694e-06 0
-1.30837e-06 -9.70031e-06 0
-1.0505e-06 -9.80785e-06 0
-7.90099e-07 -9.89177e-06 0
-5.27796e-07 -9.95185e-06 0
-2.64222e-07 -9.98795e-06 0
-1.18343e-11 -1e-05 0
2.64199e-07 -9.98795e-06 0
5.27773e-07 -9.95185e-06 0
7.90075e-07 -9.89177e-06 0
1.05047e-06 -9.80785e-06 0
1.30834e-06 -9.70031e-06 0
1.56306e-06 -9.5694e-06 0
1.81401e-06 -9.41544e-06 0
2.06059e-06 -9.2388e-06 0
2.30221e-06 -9.03989e-06 0
2.53828e-06 -8.81921e-06 0
2.76823e-06 -8.57729e-06 0
2.99152e-06 -8.3147e-06 0
3.2076e-06 -8.03208e-06 0
3.41595e-06 -7.7301e-06 0
3.61607e-06 -7.40951e-06 0
3.80749e-06 -7.07107e-06 0
3.98972e-06 -6.71559e-06 0
4.16235e-06 -6.34393e-06 0
4.32495e-06 -5.95699e-06 0
4.47713e-06 -5.5557e-06 0
4.61853e-06 -5.14103e-06 0
4.74879e-06 -4.71397e-06 0
4.86762e-06 -4.27555e-06 0
4.97472e-06 -3.82683e-06 0
5.06984e-06 -3.3689e-06 0
5.15274e-06 -2.90285e-06 0
5.22323e-06 -2.4298e-06 0
5.28114e-06 -1.9509e-06 0
5.32632e-06 -1.4673e-06 0
5.35868e-06 -9.80171e-07 0
5.37812e-06 -4.90677e-07 0
0.00312636 0 0
0.00312259 0.000285256 0
0.00311129 0.000569825 0
0.00309248 0.000853022 0
0.00306621 0.00113416 0
0.00303255 0.00141257 0
0.00299157 0.00168758 0
0.00294337 0.00195852 0
0.00288808 0.00222474 0
0.00282581 0.0024856 0
0.00275673 0.00274048 0
0.002681 0.00298875 0
0.0025988 0.00322982 0
0.00251033 0.00346311 0
0.0024158 0.00368806 0
0.00231544 0.00390413 0
0.0022095 0.00411078 0
0.00209822 0.00430754 0
0.00198188 0.00449392 0
0.00186075 0.00466947 0
0.00173514 0.00483377 0
0.00160533 0.00498643 0
0.00147164 0.00512707 0
0.0013344 0.00525537 0
0.00119394 0.005371 0
0.00105059 0.00547369 0
0.000904696 0.0055632 0
0.000756616 0.0056393 0
0.000606703 0.00570182 0
0.00045532 0.0057506 0
0.000302829 0.00578553 0
0.0001496 0.00580652 0
-3.99966e-06 0.00581353 0
-0.000157599 0.00580652 0
-0.000310829 0.00578553 0
-0.000463319 0.0057506 0
-0.000614703 0.00570182 0
-0.000764615 0.0056393 0
-0.000912695 0.0055632 0
-0.00105859 0.00547369 0
-0.00120194 0.005371 0
-0.0013424 0.00525537 0
-0.00147964 0.00512707 0
-0.00161333 0.00498643 0
-0.00174313 0.00483377 0
-0.00186875 0.00466947 0
-0.00198988 0.00449392 0
-0.00210622 0.00430754 0
-0.0022175 0.00411078 0
-0.00232344 0.00390413 0
-0.0024238 0.00368806 0
-0.00251833 0.00346311 0
-0.0026068 0.00322982 0
-0.002689 0.00298875 0
-0.00276473 0.00274048 0
-0.00283381 0.0024856 0
-0.00289608 0.00222474 0
-0.00295137 0.00195852 0
-0.00299957 0.00168758 0
-0.00304055 0.00141257 0
-0.00307421 0.00113416 0
-0.00310048 0.000853022 0
-0.00311929 0.000569825 0
-0.00313059 0.000285256 0
-0.00313436 7.11952e-19 0
-0.00313059 -0.000285256 0
-0.00311929 -0.000569825 0
-0.00310048 -0.000853022 0
-0.00307421 -0.00113416 0
-0.00304055 -0.00141257 0
-0.00299957 -0.00168758 0
-0.00295137 -0.00195852 0
-0.00289608 -0.00222474 0
-0.00283381 -0.0024856 0
-0.00276473 -0.00274048 0
-0.002689 -0.00298875 0
-0.0026068 -0.00322982 0
-0.00251833 -0.00346311 0
-0.0024238 -0.00368806 0
-0.00232344 -0.00390413 0
-0.0022175 -0.00411078 0
-0.00210622 -0.00430754 0
-0.00198988 -0.00449392 0
-0.00186875 -0.00466947 0
-0.00174313 -0.00483377 0
-0.00161333 -0.00498643 0
-0.00147964 -0.00512707 0
-0.0013424 -0.00525537 0
-0.00120194 -0.005371 0
-0.00105859 -0.00547369 0
-0.000912695 -0.0055632 0
-0.000764615 -0.0056393 0
-0.000614703 -0.00570182 0
-0.000463319 -0.0057506 0
-0.000310829 -0.00578553 0
-0.000157599 -0.00580652 0
-3.99966e-06 -0.00581353 0
0.0001496 -0.00580652 0
0.000302829 -0.00578553 0
0.00045532 -0.0057506 0
0.000606703 -0.00570182 0
0.000756616 -0.0056393 0
0.000904696 -0.0055632 0
0.00105059 -0.00547369 0
0.00119394 -0.005371 0
0.0013344 -0.00525537 0
0.00147164 -0.00512707 0
0.00160533 -0.00498643 0
0.00173514 -0.00483377 0
0.00186075 -0.00466947 0
0.00198188 -0.00449392 0
0.00209822 -0.00430754 0
0.0022095 -0.00411078 0
0.00231544 -0.00390413 0
0.0024158 -0.00368806 0
0.00251033 -0.00346311 0
0.0025988 -0.00322982 0
0.002681 -0.00298875 0
0.00275673 -0.00274048 0
0.00282581 -0.0024856 0
0.00288808 -0.00222474 0
0.00294337 -0.00195852 0
0.00299157 -0.00168758 0
0.00303255 -0.00141257 0
0.00306621 -0.00113416 0
0.00309248 -0.000853022 0
0.00311129 -0.000569825 0
0.00312259 -0.000285256 0
0.00623937 0 0
0.00623183 0.000570022 0
0.00620924 0.00113867 0
0.00617166 0.00170458 0
0.00611917 0.00226637 0
0.0060519 0.00282271 0
0.00597001 0.00337225 0
0.0058737 0.00391367 0
0.00576321 0.00444565 0
0.00563879 0.00496693 0
0.00550074 0.00547624 0
0.00534941 0.00597236 0
0.00518515 0.00645409 0
0.00500836 0.00692027 0
0.00481947 0.00736978 0
0.00461893 0.00780154 0
0.00440722 0.0082145 0
0.00418486 0.00860767 0
0.00395237 0.0089801 0
0.00371033 0.0093309 0
0.00345931 0.00965923 0
0.00319991 0.00996428 0
0.00293277 0.0102453 0
0.00265853 0.0105017 0
0.00237784 0.0107328 0
0.00209139 0.010938 0
0.00179986 0.0111168 0
0.00150395 0.0112689 0
0.00120438 0.0113938 0
0.000901877 0.0114913 0
0.000597159 0.0115611 0
0.000290964 0.0116031 0
-1.59711e-05 0.0116171 0
-0.000322906 0.0116031 0
-0.000629101 0.0115611 0
-0.00093382 0.0114913 0
-0.00123633 0.0113938 0
-0.00153589 0.0112689 0
-0.0018318 0.0111168 0
-0.00212333 0.010938 0
-0.00240978 0.0107328 0
-0.00269047 0.0105017 0
-0.00296472 0.0102453 0
-0.00323186 0.00996428 0
-0.00349125 0.00965923 0
-0.00374227 0.0093309 0
-0.00398431 0.0089801 0
-0.0042168 0.00860767 0
-0.00443916 0.0082145 0
-0.00465087 0.00780154 0
-0.00485141 0.00736978 0
-0.0050403 0.00692027 0
-0.00521709 0.00645409 0
-0.00538135 0.00597236 0
-0.00553269 0.00547624 0
-0.00567073 0.00496693 0
-0.00579515 0.00444565 0
-0.00590565 0.00391367 0
-0.00600195 0.00337225 0
-0.00608384 0.00282271 0
-0.00615111 0.00226637 0
-0.0062036 0.00170458 0
-0.00624119 0.00113867 0
-0.00626377 0.000570022 0
-0.00627131 1.42268e-18 0
-0.00626377 -0.000570022 0
-0.00624119 -0.00113867 0
-0.0062036 -0.00170458 0
-0.00615111 -0.00226637 0
-0.00608384 -0.00282271 0
-0.00600195 -0.00337225 0
-0.00590565 -0.00391367 0
-0.00579515 -0.00444565 0
-0.00567073 -0.00496693 0
-0.00553269 -0.00547624 0
-0.00538135 -0.00597236 0
-0.00521709 -0.00645409 0
-0.0050403 -0.00692027 0
-0.00485141 -0.00736978 0
-0.00465087 -0.00780154 0
-0.00443916 -0.0082145 0
-0.0042168 -0.00860767 0
-0.00398431 -0.0089801 0
-0.00374227 -0.0093309 0
-0.00349125 -0.00965923 0
-0.00323186 -0.00996428 0
-0.00296472 -0.0102453 0
-0.00269047 -0.0105017 0
-0.00240978 -0.0107328 0
-0.00212333 -0.010938 0
-0.0018318 -0.0111168 0
-0.00153589 -0.0112689 0
-0.00123633 -0.0113938 0
-0.00093382 -0.0114913 0
-0.000629101 -0.0115611 0
-0.000322906 -0.0116031 0
-1.59711e-05 -0.0116171 0
0.000290964 -0.0116031 0
0.000597159 -0.0115611 0
0.000901877 -0.0114913 0
0.00120438 -0.0113938 0
0.00150395 -0.0112689 0
0.00179986 -0.0111168 0
0.00209139 -0.010938 0
0.00237784 -0.0107328 0
0.00265853 -0.0105017 0
0.00293277 -0.0102453 0
0.00319991 -0.00996428 0
0.00345931 -0.00965923 0
0.00371033 -0.0093309 0
0.00395237 -0.0089801 0
0.00418486 -0.00860767 0
0.00440722 -0.0082145 0
0.00461893 -0.00780154 0
0.00481947 -0.00736978 0
0.00500836 -0.00692027 0
0.00518515 -0.00645409 0
0.00534941 -0.00597236 0
0.00550074 -0.00547624 0
0.00563879 -0.00496693 0
0.00576321 -0.00444565 0
0.0058737 -0.00391367 0
0.00597001 -0.00337225 0
0.0060519 -0.00282271 0
0.00611917 -0.00226637 0
0.00617166 -0.00170458 0
0.00620924 -0.00113867 0
0.00623183 -0.000570022 0
0.0093444 0 0
0.0093331 0.000854787 0
[...]
<PointData Scalars="FunctionValues">
<DataArray type="Float32" Name="FunctionValues" format="ascii">0
1.2628e-06
2.52256e-06
3.77624e-06
5.02083e-06
6.25332e-06
7.47075e-06
8.67017e-06
9.84871e-06
1.10035e-05
1.21318e-05
1.32309e-05
1.42981e-05
1.53309e-05
1.63267e-05
1.72832e-05
1.8198e-05
1.90691e-05
1.98941e-05
2.06713e-05
2.13986e-05
2.20744e-05
2.26971e-05
2.3265e-05
2.37769e-05
2.42315e-05
2.46277e-05
2.49647e-05
2.52414e-05
2.54574e-05
2.5612e-05
2.57049e-05
2.57359e-05
2.57049e-05
2.5612e-05
2.54574e-05
2.52414e-05
2.49647e-05
2.46277e-05
2.42315e-05
2.37769e-05
2.3265e-05
2.26971e-05
2.20744e-05
2.13986e-05
2.06713e-05
1.98941e-05
1.90691e-05
1.8198e-05
1.72832e-05
1.63267e-05
1.53309e-05
1.42981e-05
1.32309e-05
1.21318e-05
1.10035e-05
9.84871e-06
8.67017e-06
7.47075e-06
6.25332e-06
5.02083e-06
3.77624e-06
2.52256e-06
1.2628e-06
3.15174e-21
-1.2628e-06
-2.52256e-06
-3.77624e-06
-5.02083e-06
-6.25332e-06
-7.47075e-06
-8.67017e-06
-9.84871e-06
-1.10035e-05
-1.21318e-05
-1.32309e-05
-1.42981e-05
-1.53309e-05
-1.63267e-05
-1.72832e-05
-1.8198e-05
-1.90691e-05
-1.98941e-05
-2.06713e-05
-2.13986e-05
-2.20744e-05
-2.26971e-05
-2.3265e-05
-2.37769e-05
-2.42315e-05
-2.46277e-05
-2.49647e-05
-2.52414e-05
-2.54574e-05
-2.5612e-05
-2.57049e-05
-2.57359e-05
-2.57049e-05
-2.5612e-05
-2.54574e-05
-2.52414e-05
-2.49647e-05
-2.46277e-05
-2.42315e-05
-2.37769e-05
-2.3265e-05
-2.26971e-05
-2.20744e-05
-2.13986e-05
-2.06713e-05
-1.98941e-05
-1.90691e-05
-1.8198e-05
-1.72832e-05
-1.63267e-05
-1.53309e-05
-1.42981e-05
-1.32309e-05
-1.21318e-05
-1.10035e-05
-9.84871e-06
-8.67017e-06
-7.47075e-06
-6.25332e-06
-5.02083e-06
-3.77624e-06
-2.52256e-06
-1.2628e-06
5.27037e-13
0.000733903
0.00146602
0.00219458
0.0029178
0.00363393
0.00434125
0.00503803
0.0057226
0.00639332
0.00704855
0.00768673
0.00830633
0.00890586
0.00948389
0.010039
0.0105699
0.0110753
0.011554
0.0120049
0.0124268
0.0128188
0.01318
0.0135094
0.0138062
0.0140699
0.0142996
0.014495
0.0146555
0.0147807
0.0148703
0.0149242
0.0149422
0.0149242
0.0148703
0.0147807
0.0146555
0.014495
0.0142996
0.0140698
0.0138062
0.0135093
0.0131799
0.0128188
0.0124268
0.0120049
0.011554
0.0110753
0.0105699
0.0100389
0.00948382
0.00890579
0.00830626
0.00768666
0.00704848
0.00639325
0.00572254
0.00503798
0.0043412
0.00363389
0.00291776
0.00219455
0.001466
0.000733893
5.37215e-13
-0.000733893
-0.001466
-0.00219455
-0.00291776
-0.00363389
-0.0043412
-0.00503798
-0.00572254
-0.00639325
-0.00704848
-0.00768666
-0.00830626
-0.00890579
-0.00948382
-0.0100389
-0.0105699
-0.0110753
-0.011554
-0.0120049
-0.0124268
-0.0128188
-0.0131799
-0.0135093
-0.0138062
-0.0140698
-0.0142996
-0.014495
-0.0146555
-0.0147807
-0.0148703
-0.0149242
-0.0149422
-0.0149242
-0.0148703
-0.0147807
-0.0146555
-0.014495
-0.0142996
-0.0140699
-0.0138062
-0.0135094
-0.01318
-0.0128188
-0.0124268
-0.0120049
-0.011554
-0.0110753
-0.0105699
-0.010039
-0.00948389
-0.00890586
-0.00830633
-0.00768673
-0.00704855
-0.00639332
-0.0057226
-0.00503803
-0.00434125
-0.00363393
-0.0029178
-0.00219458
-0.00146602
-0.000733903
7.46441e-13
0.00146513
0.0029267
0.00438115
0.00582495
0.00725459
0.00866662
0.0100576
0.0114242
0.0127632
0.0140712
0.0153452
0.016582
0.0177788
0.0189326
0.0200408
0.0211005
0.0221094
0.023065
0.0239649
0.0248071
0.0255896
0.0263104
0.0269679
0.0275604
0.0280866
0.0285452
0.0289351
0.0292554
0.0295054
0.0296843
0.0297918
0.0298277
0.0297918
0.0296843
0.0295053
0.0292554
0.028935
0.0285451
0.0280865
0.0275603
0.0269677
0.0263102
0.0255894
0.0248069
0.0239647
0.0230647
0.0221092
0.0211003
0.0200405
0.0189324
0.0177786
0.0165818
0.0153449
0.014071
0.0127629
0.011424
0.0100574
0.00866645
0.00725444
0.00582482
0.00438105
0.00292663
0.0014651
7.66352e-13
-0.0014651
-0.00292663
-0.00438105
-0.00582482
-0.00725444
-0.00866645
-0.0100574
-0.011424
-0.0127629
-0.014071
-0.0153449
-0.0165818
-0.0177786
-0.0189324
-0.0200405
-0.0211003
-0.0221092
-0.0230647
-0.0239647
-0.0248069
-0.0255894
-0.0263102
-0.0269677
-0.0275603
-0.0280865
-0.0285451
-0.028935
-0.0292554
-0.0295053
-0.0296843
-0.0297918
-0.0298277
-0.0297918
-0.0296843
-0.0295054
-0.0292554
-0.0289351
-0.0285452
-0.0280866
-0.0275604
-0.0269679
-0.0263104
-0.0255896
-0.0248071
-0.0239649
-0.023065
-0.0221094
-0.0211005
-0.0200408
-0.0189326
-0.0177788
-0.016582
-0.0153452
-0.0140712
-0.0127632
-0.0114242
-0.0100576
-0.00866662
-0.00725459
-0.00582495
-0.00438115
-0.0029267
-0.00146513
8.79315e-13
0.0021936
0.00438185
0.00655944
0.00872108
0.0108615
0.0129755
0.0150581
0.0171041
0.0191086
0.0210668
0.022974
0.0248257
0.0266173
0.0283445
0.0300034
0.0315898
0.0330999
0.0345303
0.0358774
0.037138
0.0383092
0.0393881
0.0403722
0.041259
0.0420466
0.042733
0.0433166
0.043796
0.04417
0.0444378
0.0445987
0.0446524
0.0445986
0.0444377
0.0441698
0.0437957
0.0433163
0.0427327
0.0420462
0.0412586
0.0403717
0.0393876
0.0383087
0.0371374
0.0358768
0.0345296
0.0330993
0.0315891
0.0300027
0.0283438
0.0266166
0.024825
0.0229733
0.0210661
0.019108
0.0171035
0.0150575
0.0129751
0.0108611
0.00872074
0.00655918
0.00438168
0.00219351
9.08923e-13
-0.00219351
-0.00438168
-0.00655918
-0.00872074
-0.0108611
-0.0129751
-0.0150575
-0.0171035
-0.019108
-0.0210661
-0.0229733
-0.024825
-0.0266166
-0.0283438
-0.0300027
-0.0315891
-0.0330993
-0.0345296
-0.0358768
-0.0371374
-0.0383087
-0.0393876
-0.0403717
-0.0412586
-0.0420462
-0.0427327
-0.0433163
-0.0437957
-0.0441698
-0.0444377
-0.0445986
-0.0446524
-0.0445987
-0.0444378
-0.04417
-0.043796
-0.0433166
-0.042733
-0.0420466
-0.041259
-0.0403722
-0.0393881
-0.0383092
-0.037138
-0.0358774
-0.0345303
-0.0330999
-0.0315898
-0.0300034
-0.0283445
-0.0266173
-0.0248257
-0.022974
-0.0210668
-0.0191086
-0.0171041
-0.0150581
-0.0129755
-0.0108615
-0.00872108
-0.00655944
-0.00438185
-0.0021936
9.72875e-13
0.00291795
0.00582879
0.00872543
0.0116008
0.014448
0.01726
0.02003
0.0227515
0.0254177
0.0280222
0.0305589
0.0330216
0.0354044
0.0377016
0.0399077
0.0420174
0.0440257
0.0459278
0.0477191
0.0493954
0.0509527
0.0523872
0.0536957
0.0548748
0.055922
0.0568345
0.0576104
0.0582477
0.058745
0.059101
0.0593149
0.0593862
0.0593147
0.0591006
0.0587445
0.0582471
0.0576096
0.0568336
0.0559209
0.0548737
0.0536944
0.0523858
0.0509512
0.0493938
0.0477174
0.045926
0.0440239
0.0420156
0.0399058
0.0376997
0.0354026
0.0330198
0.0305572
0.0280206
0.0254161
0.02275
0.0200287
0.0172588
0.014447
0.0116
0.00872479
0.00582836
0.00291773
1.01218e-12
-0.00291773
-0.00582836
-0.00872479
-0.0116
-0.014447
-0.0172588
-0.0200287
-0.02275
-0.0254161
-0.0280206
-0.0305572
-0.0330198
-0.0354026
-0.0376997
-0.0399058
-0.0420156
-0.0440239
-0.045926
-0.0477174
-0.0493938
-0.0509512
-0.0523858
-0.0536944
-0.0548737
-0.0559209
-0.0568336
-0.0576096
-0.0582471
-0.0587445
-0.0591006
-0.0593147
-0.0593862
-0.0593149
-0.059101
-0.058745
-0.0582477
-0.0576104
-0.0568345
-0.055922
-0.0548748
-0.0536957
-0.0523872
-0.0509527
-0.0493954
-0.0477191
-0.0459278
-0.0440257
-0.0420174
-0.0399077
-0.0377016
-0.0354044
-0.0330216
-0.0305589
-0.0280222
-0.0254177
-0.0227515
-0.02003
-0.01726
-0.014448
-0.0116008
-0.00872543
-0.00582879
-0.00291795
1.04427e-12
0.00363687
0.00726486
0.0108751
0.0144589
0.0180074
0.0215121
0.0249644
0.028356
0.0316787
0.0349245
0.0380856
0.0411544
0.0441236
0.046986
0.0497348
0.0523634
0.0548655
0.0572353
0.0594669
0.0615552
0.0634952
0.0652822
0.066912
0.0683808
0.069685
0.0708216
0.0717879
0.0725816
0.0732009
0.0736442
0.0739105
0.0739992
0.0739101
0.0736434
0.0731997
0.0725801
0.071786
0.0708194
0.0696825
0.0683779
0.0669089
0.0652788
0.0634916
0.0615514
0.059463
0.0572312
0.0548613
0.0523591
0.0497305
0.0469818
0.0441194
0.0411503
0.0380817
0.0349207
0.0316751
0.0283527
0.0249614
0.0215094
0.0180051
0.014457
0.0108737
0.00726392
0.00363639
1.09327e-12
-0.00363639
-0.00726392
-0.0108737
-0.014457
-0.0180051
-0.0215094
-0.0249614
-0.0283527
-0.0316751
-0.0349207
-0.0380817
-0.0411503
-0.0441194
-0.0469818
-0.0497305
-0.0523591
-0.0548613
-0.0572312
-0.059463
-0.0615514
-0.0634916
-0.0652788
-0.0669089
-0.0683779
-0.0696825
-0.0708194
-0.071786
-0.0725801
-0.0731997
-0.0736434
-0.0739101
-0.0739992
-0.0739105
-0.0736442
-0.0732009
-0.0725816
-0.0717879
-0.0708216
-0.069685
-0.0683808
-0.066912
-0.0652822
-0.0634952
-0.0615552
-0.0594669
-0.0572353
-0.0548655
-0.0523634
-0.0497348
-0.046986
-0.0441236
-0.0411544
-0.0380856
-0.0349245
-0.0316787
-0.028356
-0.0249644
-0.0215121
-0.0180074
-0.0144589
-0.0108751
-0.00726486
-0.00363687
1.10156e-12
0.00434904
0.00868745
0.0130046
0.0172901
0.0215333
0.0257239
0.0298519
0.0339072
0.0378801
0.0417608
0.0455401
0.049209
0.0527585
0.0561803
0.0594661
0.0626081
0.0655988
0.0684311
0.0710982
0.0735939
0.0759122
0.0780476
0.0799951
0.08175
0.0833083
0.0846663
0.0858207
0.0867689
0.0875086
0.088038
0.0883561
0.0884619
0.0883552
0.0880364
0.0875062
0.0867657
0.0858168
0.0846616
0.083303
0.0817441
0.0799886
0.0780406
0.0759047
0.073586
0.07109
0.0684226
0.0655902
0.0625994
0.0594574
0.0561716
0.05275
0.0492007
0.0455321
0.0417532
0.0378729
0.0339007
0.029846
0.0257187
0.0215288
0.0172864
0.0130019
0.00868559
0.0043481
1.16022e-12
-0.0043481
-0.00868559
-0.0130019
-0.0172864
-0.0215288
-0.0257187
-0.029846
-0.0339007
-0.0378729
-0.0417532
-0.0455321
-0.0492007
-0.05275
-0.0561716
-0.0594574
-0.0625994
-0.0655902
-0.0684226
-0.07109
-0.073586
-0.0759047
-0.0780406
-0.0799886
-0.0817441
-0.083303
-0.0846616
-0.0858168
-0.0867657
-0.0875062
-0.0880364
-0.0883552
-0.0884619
-0.0883561
-0.088038
-0.0875086
-0.0867689
-0.0858207
-0.0846663
-0.0833083
-0.08175
-0.0799951
-0.0780476
-0.0759122
-0.0735939
-0.0710982
-0.0684311
-0.0655988
-0.0626081
-0.0594661
-0.0561803
-0.0527585
-0.049209
-0.0455401
-0.0417608
-0.0378801
-0.0339072
-0.0298519
-0.0257239
-0.0215333
-0.0172901
-0.0130046
-0.00868745
-0.00434904
1.14905e-12
0.00505319
0.010094
0.0151101
0.0200892
0.0250192
0.029888
0.0346839
0.0393952
0.0440104
0.0485186
0.0529087
0.0571703
0.0612931
0.0652673
0.0690833
0.0727322
0.0762051
0.0794939
0.0825907
0.0854882
0.0881797
0.0906586
0.0929193
0.0949563
0.096765
0.0983411
0.0996808
0.100781
0.101639
0.102254
0.102622
0.102745
0.102621
0.102251
0.101635
0.100775
0.0996734
0.0983324
0.0967551
0.0949453
0.0929072
0.0906455
0.0881657
0.0854736
0.0825754
0.0794782
0.0761891
0.072716
0.0690672
0.0652513
0.0612774
0.057155
0.0528941
0.0485047
0.0439975
0.0393832
0.0346731
0.0298785
0.0250111
0.0200826
0.0151051
0.0100906
0.00505149
1.21738e-12
-0.00505149
-0.0100906
-0.0151051
-0.0200826
-0.0250111
-0.0298785
-0.0346731
-0.0393832
-0.0439975
-0.0485047
-0.0528941
-0.057155
-0.0612774
-0.0652513
-0.0690672
-0.072716
-0.0761891
-0.0794782
-0.0825754
-0.0854736
-0.0881657
-0.0906455
-0.0929072
-0.0949453
-0.0967551
-0.0983324
-0.0996734
-0.100775
-0.101635
-0.102251
-0.102621
-0.102745
-0.102622
-0.102254
-0.101639
-0.100781
-0.0996808
-0.0983411
-0.096765
-0.0949563
-0.0929193
-0.0906586
-0.0881797
-0.0854882
-0.0825907
-0.0794939
-0.0762051
-0.0727322
-0.0690833
-0.0652673
-0.0612931
-0.0571703
-0.0529087
-0.0485186
-0.0440104
-0.0393952
-0.0346839
-0.029888
-0.0250192
-0.0200892
-0.0151101
-0.010094
-0.00505319
1.1894e-12
0.00574805
0.011482
0.0171877
0.0228514
0.0284589
0.0339968
0.0394516
0.0448099
0.0500587
0.0551855
0.0601779
0.0650238
0.0697116
0.0742301
0.0785686
0.0827167
0.0866645
0.0904027
0.0939225
0.0972155
0.100274
0.103091
0.10566
0.107974
0.110029
0.111819
0.113341
0.11459
0.115565
0.116262
0.116681
0.11682
0.116678
0.116257
0.115557
0.11458
0.113328
0.111804
0.110012
0.107955
0.105639
0.103068
0.10025
0.0971903
0.0938963
0.0903758
0.0866371
0.0826891
0.078541
0.0742028
0.0696848
0.0649978
0.060153
0.0551619
0.0500367
0.0447896
0.0394333
0.0339808
0.0284453
0.0228402
0.0171793
0.0114763
0.00574518
1.26736e-12
-0.00574518
-0.0114763
-0.0171793
-0.0228402
-0.0284453
-0.0339808
-0.0394333
-0.0447896
-0.0500367
-0.0551619
-0.060153
-0.0649978
-0.0696848
-0.0742028
-0.078541
-0.0826891
-0.0866371
-0.0903758
-0.0938963
-0.0971903
-0.10025
-0.103068
-0.105639
-0.107955
-0.110012
-0.111804
-0.113328
-0.11458
-0.115557
-0.116257
-0.116678
-0.11682
-0.116681
-0.116262
-0.115565
-0.11459
-0.113341
-0.111819
-0.110029
-0.107974
-0.10566
-0.103091
-0.100274
-0.0972155
-0.0939225
-0.0904027
-0.0866645
-0.0827167
-0.0785686
-0.0742301
-0.0697116
-0.0650238
-0.0601779
-0.0551855
-0.0500587
-0.0448099
-0.0394516
-0.0339968
-0.0284589
-0.0228514
-0.0171877
-0.011482
-0.00574805
1.22427e-12
0.0064324
0.012849
0.0192339
0.0255716
0.0318464
0.0380431
0.0441464
0.0501416
0.0560141
0.0617497
0.0673346
0.0727553
0.0779987
0.0830525
0.0879045
0.0925432
0.0969576
0.101137
0.105072
0.108753
0.112172
0.115321
0.118191
0.120778
0.123073
0.125074
0.126774
0.128169
0.129258
0.130036
0.130504
0.130658
0.130499
0.130028
0.129245
0.128153
0.126753
0.12505
0.123046
0.120747
0.118158
0.115284
0.112134
0.108713
0.10503
0.101094
0.0969136
0.0924988
0.0878602
0.0830087
0.0779558
0.0727137
0.0672947
0.061712
0.0559789
0.0501093
0.0441173
0.0380175
0.0318247
0.0255539
0.0192205
0.0128399
0.00642784
1.31188e-12
-0.00642784
-0.0128399
-0.0192205
-0.0255539
-0.0318247
-0.0380175
-0.0441173
-0.0501093
-0.0559789
-0.061712
-0.0672947
-0.0727137
-0.0779558
-0.0830087
-0.0878602
-0.0924988
-0.0969136
-0.101094
-0.10503
-0.108713
-0.112134
-0.115284
-0.118158
-0.120747
-0.123046
-0.12505
-0.126753
-0.128153
-0.129245
-0.130028
-0.130499
-0.130658
-0.130504
-0.130036
-0.129258
-0.128169
-0.126774
-0.125074
-0.123073
-0.120778
-0.118191
-0.115321
-0.112172
-0.108753
-0.105072
-0.101137
-0.0969576
-0.0925432
-0.0879045
-0.0830525
-0.0779987
-0.0727553
-0.0673346
-0.0617497
-0.0560141
-0.0501416
-0.0441464
-0.0380431
-0.0318464
-0.0255716
-0.0192339
-0.012849
-0.0064324
1.25485e-12
0.00710504
0.0141925
0.021245
0.0282451
0.0351756
0.0420196
0.0487602
0.055381
0.061866
0.0681995
0.074366
0.0803509
0.0861396
0.0917185
0.0970741
0.102194
0.107065
0.111678
0.116019
0.120081
0.123852
0.127325
0.130491
0.133343
0.135874
0.138079
0.139953
0.141492
0.142691
0.143549
0.144063
0.144232
0.144056
0.143536
0.142672
0.141466
0.139922
0.138042
0.135832
0.133296
0.130439
0.127269
0.123793
0.120019
0.115955
0.111611
0.106998
0.102126
0.0970065
0.0916517
0.0860742
0.0802875
0.0743054
0.0681421
0.0618125
0.0553319
0.048716
0.0419808
0.0351426
0.0282183
0.0212246
0.0141788
0.00709813
1.35205e-12
-0.00709813
-0.0141788
-0.0212246
-0.0282183
-0.0351426
-0.0419808
-0.048716
-0.0553319
-0.0618125
-0.0681421
-0.0743054
-0.0802875
-0.0860742
-0.0916517
-0.0970065
-0.102126
-0.106998
-0.111611
-0.115955
-0.120019
-0.123793
-0.127269
-0.130439
-0.133296
-0.135832
-0.138042
-0.139922
-0.141466
-0.142672
-0.143536
-0.144056
-0.144232
-0.144063
-0.143549
-0.142691
-0.141492
-0.139953
-0.138079
-0.135874
-0.133343
-0.130491
-0.127325
-0.123852
-0.120081
-0.116019
-0.111678
-0.107065
-0.102194
-0.0970741
-0.0917185
-0.0861396
-0.0803509
-0.074366
-0.0681995
-0.061866
-0.055381
-0.0487602
-0.0420196
-0.0351756
-0.0282451
-0.021245
-0.0141925
-0.00710504
1.28191e-12
0.00776481
0.0155104
0.0232176
0.0308674
0.0384409
0.0459195
0.0532849
0.060519
0.0676043
0.0745235
0.0812599
0.0877973
0.0941199
0.100213
0.106061
0.111651
0.11697
0.122005
0.126744
0.131176
0.135291
0.13908
0.142534
0.145645
0.148406
0.150811
0.152854
0.154531
0.155838
0.156772
0.157332
0.157515
0.157322
0.156753
0.15581
0.154494
0.152808
0.150757
0.148344
0.145576
0.142459
0.138999
0.135205
0.131085
0.126649
0.121908
0.116871
0.111552
0.105962
0.100115
0.0940242
0.0877046
0.0811712
0.0744396
0.0675261
0.0604473
0.0532203
0.0458628
0.0383927
0.0308282
0.0231878
0.0154903
0.00775473
1.38874e-12
-0.00775473
-0.0154903
-0.0231878
-0.0308282
-0.0383927
-0.0458628
-0.0532203
-0.0604473
-0.0675261
-0.0744396
-0.0811712
-0.0877046
-0.0940242
-0.100115
-0.105962
-0.111552
-0.116871
-0.121908
-0.126649
-0.131085
-0.135205
-0.138999
-0.142459
-0.145576
-0.148344
-0.150757
-0.152808
-0.154494
-0.15581
-0.156753
-0.157322
-0.157515
-0.157332
-0.156772
-0.155838
-0.154531
-0.152854
-0.150811
-0.148406
-0.145645
-0.142534
-0.13908
-0.135291
-0.131176
-0.126744
-0.122005
-0.11697
-0.111651
-0.106061
-0.100213
-0.0941199
-0.0877973
-0.0812599
-0.0745235
-0.0676043
-0.060519
-0.0532849
-0.0459195
-0.0384409
-0.0308674
-0.0232176
-0.0155104
-0.00776481
1.30611e-12
0.00841058
0.0168003
0.0251483
0.0334338
0.0416366
0.0497362
0.0577128
0.0655468
0.0732191
0.080711
0.0880043
0.0950815
0.101926
0.10852
0.114849
0.120898
0.126653
0.1321
0.137226
0.142019
0.146469
0.150566
0.1543
0.157662
0.160646
0.163244
0.165451
0.167262
0.168673
0.169682
0.170285
0.170481
0.170271
0.169655
0.168634
0.16721
0.165386
0.163167
0.160558
0.157564
0.154193
0.150451
0.146347
0.141891
0.137092
0.131963
0.126514
0.120758
0.114709
0.108382
0.10179
0.0949504
0.0878788
0.0805923
0.0731085
0.0654453
0.0576215
0.0496561
0.0415685
0.0333785
0.0251062
0.016772
0.00839635
1.42251e-12
-0.00839635
-0.016772
-0.0251062
-0.0333785
-0.0415685
-0.0496561
-0.0576215
-0.0654453
-0.0731085
-0.0805923
-0.0878788
-0.0949504
-0.10179
-0.108382
-0.114709
-0.120758
-0.126514
-0.131963
-0.137092
-0.141891
-0.146347
-0.150451
-0.154193
-0.157564
-0.160558
-0.163167
-0.165386
-0.16721
-0.168634
-0.169655
-0.170271
-0.170481
-0.170285
-0.169682
-0.168673
-0.167262
-0.165451
-0.163244
-0.160646
-0.157662
-0.1543
-0.150566
-0.146469
-0.142019
-0.137226
-0.1321
-0.126653
-0.120898
-0.114849
-0.10852
-0.101926
-0.0950815
-0.0880043
-0.080711
-0.0732191
-0.0655468
-0.0577128
-0.0497362
-0.0416366
-0.0334338
-0.0251483
-0.0168003
-0.00841058
1.32784e-12
0.00904126
0.01806
0.0270337
0.0359402
0.0447573
0.0534631
0.0620363
0.0704557
0.0787008
0.0867513
0.0945877
0.102191
0.109543
0.116626
0.123424
0.12992
0.136098
0.141945
0.147447
0.152591
0.157366
0.161761
0.165765
0.169371
0.17257
0.175355
0.177721
0.179661
0.181173
0.182252
0.182896
0.183105
0.182878
0.182215
0.181118
0.179589
0.177632
0.17525
0.17245
0.169237
0.165619
0.161602
0.157198
0.152415
0.147264
0.141757
0.135906
0.129727
0.123231
0.116436
0.109357
0.102011
0.0944153
0.0865883
0.0785488
0.0703164
0.061911
0.0533532
0.0446638
0.0358642
0.026976
0.0180212
0.00902174
1.45386e-12
-0.00902174
-0.0180212
-0.026976
-0.0358642
-0.0446638
-0.0533532
-0.061911
-0.0703164
-0.0785488
-0.0865883
-0.0944153
-0.102011
-0.109357
-0.116436
-0.123231
-0.129727
-0.135906
-0.141757
-0.147264
-0.152415
-0.157198
-0.161602
-0.165619
-0.169237
-0.17245
-0.17525
-0.177632
-0.179589
-0.181118
-0.182215
-0.182878
-0.183105
-0.182896
-0.182252
-0.181173
-0.179661
-0.177721
-0.175355
-0.17257
-0.169371
-0.165765
-0.161761
-0.157366
-0.152591
-0.147447
-0.141945
-0.136098
-0.12992
-0.123424
-0.116626
-0.109543
-0.102191
-0.0945877
-0.0867513
-0.0787008
-0.0704557
-0.0620363
-0.0534631
-0.0447573
-0.0359402
-0.0270337
-0.01806
-0.00904126
1.34753e-12
0.00965581
0.0192875
0.0288709
0.0383823
0.0477978
0.0570942
0.0662484
0.0752378
0.0840403
0.0926344
0.100999
0.109114
0.11696
0.124518
0.13177
0.138699
0.145289
0.151524
0.157389
0.162873
0.167962
0.172645
0.176911
0.180751
0.184158
0.187123
0.18964
0.191705
0.193312
0.194459
0.195143
0.195363
0.195118
0.19441
0.193239
0.191608
0.189521
0.186982
0.183997
0.180571
0.176714
0.172432
0.167736
0.162636
0.157144
0.151271
0.145032
0.13844
0.131512
0.124263
0.116711
0.108873
0.100768
0.0924159
0.0838366
0.075051
0.0660805
0.0569468
0.0476726
0.0382804
0.0287936
0.0192354
0.00962965
1.4831e-12
-0.00962965
-0.0192354
-0.0287936
-0.0382804
-0.0476726
-0.0569468
-0.0660805
-0.075051
-0.0838366
-0.0924159
-0.100768
-0.108873
-0.116711
-0.124263
-0.131512
-0.13844
-0.145032
-0.151271
-0.157144
-0.162636
-0.167736
-0.172432
-0.176714
-0.180571
-0.183997
-0.186982
-0.189521
-0.191608
-0.193239
-0.19441
-0.195118
-0.195363
-0.195143
-0.194459
-0.193312
-0.191705
-0.18964
-0.187123
-0.184158
-0.180751
-0.176911
-0.172645
-0.167962
-0.162873
-0.157389
-0.151524
-0.145289
-0.138699
-0.13177
-0.124518
-0.11696
-0.109114
-0.100999
-0.0926344
-0.0840403
-0.0752378
-0.0662484
-0.0570942
-0.0477978
-0.0383823
-0.0288709
-0.0192875
-0.00965581
1.3654e-12
0.0102532
0.0204807
0.0306568