<?xml version="1.0"?>
<VTKFile type="UnstructuredGrid" version="0.1" byte_order="LittleEndian">
<UnstructuredGrid>
<Piece NumberOfPoints="47360" NumberOfCells="47104">
<Points>
<DataArray type="Float64" NumberOfComponents="3" format="ascii">
5.3846e-06 0 0
5.38298e-06 2.45412e-07 0
5.37812e-06 4.90677e-07 0
5.37001e-06 7.35646e-07 0
5.35868e-06 9.80171e-07 0
5.34411e-06 1.22411e-06 0
5.32632e-06 1.4673e-06 0
5.30533e-06 1.70962e-06 0
5.28114e-06 1.9509e-06 0
5.25377e-06 2.19101e-06 0
5.22323e-06 2.4298e-06 0
5.18955e-06 2.66713e-06 0
5.15274e-06 2.90285e-06 0
5.11283e-06 3.13682e-06 0
5.06984e-06 3.3689e-06 0
5.0238e-06 3.59895e-06 0
4.97472e-06 3.82683e-06 0
4.92266e-06 4.05241e-06 0
4.86762e-06 4.27555e-06 0
4.80966e-06 4.49611e-06 0
4.74879e-06 4.71397e-06 0
4.68507e-06 4.92898e-06 0
4.61853e-06 5.14103e-06 0
4.5492e-06 5.34998e-06 0
4.47713e-06 5.5557e-06 0
4.40237e-06 5.75808e-06 0
4.32495e-06 5.95699e-06 0
4.24493e-06 6.15232e-06 0
4.16235e-06 6.34393e-06 0
4.07727e-06 6.53173e-06 0
3.98972e-06 6.71559e-06 0
3.89978e-06 6.89541e-06 0
3.80749e-06 7.07107e-06 0
3.7129e-06 7.24247e-06 0
3.61607e-06 7.40951e-06 0
3.51707e-06 7.57209e-06 0
3.41595e-06 7.7301e-06 0
3.31277e-06 7.88346e-06 0
3.2076e-06 8.03208e-06 0
3.10049e-06 8.17585e-06 0
2.99152e-06 8.3147e-06 0
2.88074e-06 8.44854e-06 0
2.76823e-06 8.57729e-06 0
2.65406e-06 8.70087e-06 0
2.53828e-06 8.81921e-06 0
2.42097e-06 8.93224e-06 0
2.30221e-06 9.03989e-06 0
2.18206e-06 9.1421e-06 0
2.06059e-06 9.2388e-06 0
1.93788e-06 9.32993e-06 0
1.81401e-06 9.41544e-06 0
1.68904e-06 9.49528e-06 0
1.56306e-06 9.5694e-06 0
1.43613e-06 9.63776e-06 0
1.30834e-06 9.70031e-06 0
1.17976e-06 9.75702e-06 0
1.05047e-06 9.80785e-06 0
9.20552e-07 9.85278e-06 0
7.90075e-07 9.89177e-06 0
6.59123e-07 9.9248e-06 0
5.27773e-07 9.95185e-06 0
3.96105e-07 9.9729e-06 0
2.64199e-07 9.98795e-06 0
1.32133e-07 9.99699e-06 0
-1.18343e-11 1e-05 0
-1.32157e-07 9.99699e-06 0
-2.64222e-07 9.98795e-06 0
-3.96129e-07 9.9729e-06 0
-5.27796e-07 9.95185e-06 0
-6.59146e-07 9.9248e-06 0
-7.90099e-07 9.89177e-06 0
-9.20576e-07 9.85278e-06 0
-1.0505e-06 9.80785e-06 0
-1.17979e-06 9.75702e-06 0
-1.30837e-06 9.70031e-06 0
-1.43616e-06 9.63776e-06 0
-1.56308e-06 9.5694e-06 0
-1.68907e-06 9.49528e-06 0
-1.81403e-06 9.41544e-06 0
-1.93791e-06 9.32993e-06 0
-2.06061e-06 9.2388e-06 0
-2.18208e-06 9.1421e-06 0
-2.30223e-06 9.03989e-06 0
-2.421e-06 8.93224e-06 0
-2.5383e-06 8.81921e-06 0
-2.65408e-06 8.70087e-06 0
-2.76826e-06 8.57729e-06 0
-2.88077e-06 8.44854e-06 0
-2.99154e-06 8.3147e-06 0
-3.10052e-06 8.17585e-06 0
-3.20762e-06 8.03208e-06 0
-3.3128e-06 7.88346e-06 0
-3.41598e-06 7.7301e-06 0
-3.5171e-06 7.57209e-06 0
-3.6161e-06 7.40951e-06 0
-3.71292e-06 7.24247e-06 0
-3.80751e-06 7.07107e-06 0
-3.8998e-06 6.89541e-06 0
-3.98975e-06 6.71559e-06 0
-4.07729e-06 6.53173e-06 0
-4.16238e-06 6.34393e-06 0
-4.24495e-06 6.15232e-06 0
-4.32498e-06 5.95699e-06 0
-4.40239e-06 5.75808e-06 0
-4.47716e-06 5.5557e-06 0
-4.54922e-06 5.34998e-06 0
-4.61855e-06 5.14103e-06 0
-4.6851e-06 4.92898e-06 0
-4.74882e-06 4.71397e-06 0
-4.80968e-06 4.49611e-06 0
-4.86765e-06 4.27555e-06 0
-4.92268e-06 4.05241e-06 0
-4.97475e-06 3.82683e-06 0
-5.02382e-06 3.59895e-06 0
-5.06986e-06 3.3689e-06 0
-5.11286e-06 3.13682e-06 0
-5.15277e-06 2.90285e-06 0
-5.18958e-06 2.66713e-06 0
-5.22326e-06 2.4298e-06 0
-5.25379e-06 2.19101e-06 0
-5.28116e-06 1.9509e-06 0
-5.30535e-06 1.70962e-06 0
-5.32635e-06 1.4673e-06 0
-5.34413e-06 1.22411e-06 0
-5.3587e-06 9.80171e-07 0
-5.37004e-06 7.35646e-07 0
-5.37814e-06 4.90677e-07 0
-5.38301e-06 2.45412e-07 0
-5.38463e-06 1.22465e-21 0
-5.38301e-06 -2.45412e-07 0
-5.37814e-06 -4.90677e-07 0
-5.37004e-06 -7.35646e-07 0
-5.3587e-06 -9.80171e-07 0
-5.34413e-06 -1.22411e-06 0
-5.32635e-06 -1.4673e-06 0
-5.30535e-06 -1.70962e-06 0
-5.28116e-06 -1.9509e-06 0
-5.25379e-06 -2.19101e-06 0
-5.22326e-06 -2.4298e-06 0
-5.18958e-06 -2.66713e-06 0
-5.15277e-06 -2.90285e-06 0
-5.11286e-06 -3.13682e-06 0
-5.06986e-06 -3.3689e-06 0
-5.02382e-06 -3.59895e-06 0
-4.97475e-06 -3.82683e-06 0
-4.92268e-06 -4.05241e-06 0
-4.86765e-06 -4.27555e-06 0
-4.80968e-06 -4.49611e-06 0
-4.74882e-06 -4.71397e-06 0
-4.6851e-06 -4.92898e-06 0
-4.61855e-06 -5.14103e-06 0
-4.54922e-06 -5.34998e-06 0
-4.47716e-06 -5.5557e-06 0
-4.40239e-06 -5.75808e-06 0
-4.32498e-06 -5.95699e-06 0
-4.24495e-06 -6.15232e-06 0
-4.16238e-06 -6.34393e-06 0
-4.07729e-06 -6.53173e-06 0
-3.98975e-06 -6.71559e-06 0
-3.8998e-06 -6.89541e-06 0
-3.80751e-06 -7.07107e-06 0
-3.71292e-06 -7.24247e-06 0
-3.6161e-06 -7.40951e-06 0
-3.5171e-06 -7.57209e-06 0
-3.41598e-06 -7.7301e-06 0
-3.3128e-06 -7.88346e-06 0
-3.20762e-06 -8.03208e-06 0
-3.10052e-06 -8.17585e-06 0
-2.99154e-06 -8.3147e-06 0
-2.88077e-06 -8.44854e-06 0
-2.76826e-06 -8.57729e-06 0
-2.65408e-06 -8.70087e-06 0
-2.5383e-06 -8.81921e-06 0
-2.421e-06 -8.93224e-06 0
-2.30223e-06 -9.03989e-06 0
-2.18208e-06 -9.1421e-06 0
-2.06061e-06 -9.2388e-06 0
-1.93791e-06 -9.32993e-06 0
-1.81403e-06 -9.41544e-06 0
-1.68907e-06 -9.49528e-06 0
-1.56308e-06 -9.5694e-06 0
-1.43616e-06 -9.63776e-06 0
-1.30837e-06 -9.70031e-06 0
-1.17979e-06 -9.75702e-06 0
-1.0505e-06 -9.80785e-06 0
-9.20576e-07 -9.85278e-06 0
-7.90099e-07 -9.89177e-06 0
-6.59146e-07 -9.9248e-06 0
-5.27796e-07 -9.95185e-06 0
-3.96129e-07 -9.9729e-06 0
-2.64222e-07 -9.98795e-06 0
-1.32157e-07 -9.99699e-06 0
-1.18343e-11 -1e-05 0
1.32133e-07 -9.99699e-06 0
2.64199e-07 -9.98795e-06 0
3.96105e-07 -9.9729e-06 0
5.27773e-07 -9.95185e-06 0
6.59123e-07 -9.9248e-06 0
7.90075e-07 -9.89177e-06 0
9.20552e-07 -9.85278e-06 0
1.05047e-06 -9.80785e-06 0
1.17976e-06 -9.75702e-06 0
1.30834e-06 -9.70031e-06 0
1.43613e-06 -9.63776e-06 0
1.56306e-06 -9.5694e-06 0
1.68904e-06 -9.49528e-06 0
1.81401e-06 -9.41544e-06 0
1.93788e-06 -9.32993e-06 0
2.06059e-06 -9.2388e-06 0
2.18206e-06 -9.1421e-06 0
2.30221e-06 -9.03989e-06 0
2.42097e-06 -8.93224e-06 0
2.53828e-06 -8.81921e-06 0
2.65406e-06 -8.70087e-06 0
2.76823e-06 -8.57729e-06 0
2.88074e-06 -8.44854e-06 0
2.99152e-06 -8.3147e-06 0
3.10049e-06 -8.17585e-06 0
3.2076e-06 -8.03208e-06 0
3.31277e-06 -7.88346e-06 0
3.41595e-06 -7.7301e-06 0
3.51707e-06 -7.57209e-06 0
3.61607e-06 -7.40951e-06 0
3.7129e-06 -7.24247e-06 0
3.80749e-06 -7.07107e-06 0
3.89978e-06 -6.89541e-06 0
3.98972e-06 -6.71559e-06 0
4.07727e-06 -6.53173e-06 0
4.16235e-06 -6.34393e-06 0
4.24493e-06 -6.15232e-06 0
4.32495e-06 -5.95699e-06 0
4.40237e-06 -5.75808e-06 0
4.47713e-06 -5.5557e-06 0
4.5492e-06 -5.34998e-06 0
4.61853e-06 -5.14103e-06 0
4.68507e-06 -4.92898e-06 0
4.74879e-06 -4.71397e-06 0
4.80966e-06 -4.49611e-06 0
4.86762e-06 -4.27555e-06 0
4.92266e-06 -4.05241e-06 0
4.97472e-06 -3.82683e-06 0
5.0238e-06 -3.59895e-06 0
5.06984e-06 -3.3689e-06 0
5.11283e-06 -3.13682e-06 0
5.15274e-06 -2.90285e-06 0
5.18955e-06 -2.66713e-06 0
5.22323e-06 -2.4298e-06 0
5.25377e-06 -2.19101e-06 0
5.28114e-06 -1.9509e-06 0
5.30533e-06 -1.70962e-06 0
5.32632e-06 -1.4673e-06 0
5.34411e-06 -1.22411e-06 0
5.35868e-06 -9.80171e-07 0
5.37001e-06 -7.35646e-07 0
5.37812e-06 -4.90677e-07 0
5.38298e-06 -2.45412e-07 0
0.0210336 0 0
0.0210272 0.000967014 0
0.021008 0.00193344 0
0.0209761 0.00289871 0
0.0209314 0.00386223 0
0.020874 0.00482343 0
0.020804 0.00578171 0
0.0207212 0.00673652 0
0.0206259 0.00768727 0
0.0205181 0.00863339 0
0.0203977 0.0095743 0
0.020265 0.0105095 0
0.02012 0.0114383 0
0.0199627 0.0123602 0
0.0197933 0.0132747 0
0.0196119 0.0141812 0
0.0194185 0.0150791 0
0.0192134 0.015968 0
0.0189965 0.0168472 0
0.0187681 0.0177163 0
0.0185283 0.0185747 0
0.0182772 0.019422 0
0.018015 0.0202575 0
0.0177418 0.0210809 0
0.0174578 0.0218915 0
0.0171632 0.0226889 0
0.0168582 0.0234727 0
0.0165429 0.0242424 0
0.0162175 0.0249974 0
0.0158822 0.0257374 0
0.0155373 0.0264619 0
0.0151829 0.0271704 0
0.0148192 0.0278626 0
0.0144465 0.028538 0
0.014065 0.0291962 0
0.0136748 0.0298368 0
0.0132764 0.0304594 0
0.0128698 0.0310637 0
0.0124554 0.0316493 0
0.0120334 0.0322158 0
0.011604 0.0327629 0
0.0111675 0.0332903 0
0.0107241 0.0337976 0
0.0102742 0.0342846 0
0.00981804 0.0347509 0
0.00935581 0.0351963 0
0.00888784 0.0356205 0
0.0084144 0.0360232 0
0.00793578 0.0364042 0
0.00745227 0.0367633 0
0.00696416 0.0371003 0
0.00647175 0.0374149 0
0.00597532 0.0377069 0
0.00547519 0.0379763 0
0.00497165 0.0382228 0
0.004465 0.0384462 0
0.00395555 0.0386465 0
0.00344361 0.0388235 0
0.00292949 0.0389772 0
0.00241348 0.0391073 0
0.00189592 0.0392139 0
0.0013771 0.0392969 0
0.000857341 0.0393562 0
0.000336954 0.0393918 0
-0.000183745 0.0394036 0
-0.000704445 0.0393918 0
-0.00122483 0.0393562 0
-0.00174459 0.0392969 0
-0.00226341 0.0392139 0
-0.00278097 0.0391073 0
-0.00329698 0.0389772 0
-0.0038111 0.0388235 0
-0.00432304 0.0386465 0
-0.00483249 0.0384462 0
-0.00533914 0.0382228 0
-0.00584268 0.0379763 0
-0.00634281 0.0377069 0
-0.00683924 0.0374149 0
-0.00733165 0.0371003 0
-0.00781976 0.0367633 0
-0.00830327 0.0364042 0
-0.00878189 0.0360232 0
-0.00925533 0.0356205 0
-0.0097233 0.0351963 0
-0.0101855 0.0347509 0
-0.0106417 0.0342846 0
-0.0110916 0.0337976 0
-0.011535 0.0332903 0
-0.0119715 0.0327629 0
-0.0124009 0.0322158 0
-0.0128229 0.0316493 0
-0.0132373 0.0310637 0
-0.0136439 0.0304594 0
-0.0140423 0.0298368 0
-0.0144324 0.0291962 0
-0.014814 0.028538 0
-0.0151867 0.0278626 0
-0.0155503 0.0271704 0
-0.0159048 0.0264619 0
-0.0162497 0.0257374 0
-0.016585 0.0249974 0
-0.0169104 0.0242424 0
-0.0172257 0.0234727 0
-0.0175307 0.0226889 0
-0.0178253 0.0218915 0
-0.0181093 0.0210809 0
-0.0183825 0.0202575 0
-0.0186447 0.019422 0
-0.0188958 0.0185747 0
-0.0191356 0.0177163 0
-0.019364 0.0168472 0
-0.0195808 0.015968 0
-0.019786 0.0150791 0
-0.0199794 0.0141812 0
-0.0201608 0.0132747 0
-0.0203302 0.0123602 0
-0.0204875 0.0114383 0
-0.0206325 0.0105095 0
-0.0207652 0.0095743 0
-0.0208856 0.00863339 0
-0.0209934 0.00768727 0
-0.0210887 0.00673652 0
-0.0211714 0.00578171 0
-0.0212415 0.00482343 0
-0.0212989 0.00386223 0
-0.0213436 0.00289871 0
-0.0213755 0.00193344 0
-0.0213947 0.000967014 0
-0.0214011 4.82555e-18 0
[...]
<PointData Scalars="FunctionValues">
<DataArray type="Float32" Name="FunctionValues" format="ascii">3.9947e-05
3.9947e-05
3.9947e-05
3.9947e-05
3.9947e-05
3.9947e-05
3.99469e-05
3.99468e-05
3.99466e-05
3.99463e-05
3.99461e-05
3.99457e-05
3.99453e-05
3.99449e-05
3.99445e-05
3.99441e-05
3.99437e-05
3.99433e-05
3.9943e-05
3.99428e-05
3.99427e-05
3.99427e-05
3.99429e-05
3.99431e-05
3.99434e-05
3.99438e-05
3.99442e-05
3.99447e-05
3.99452e-05
3.99457e-05
3.99462e-05
3.99467e-05
3.99471e-05
3.99474e-05
3.99477e-05
3.99479e-05
3.9948e-05
3.9948e-05
3.9948e-05
3.99479e-05
3.99478e-05
3.99476e-05
3.99474e-05
3.99473e-05
3.99471e-05
3.9947e-05
3.99468e-05
3.99468e-05
3.99467e-05
3.99467e-05
3.99468e-05
3.99469e-05
3.9947e-05
3.99471e-05
3.99472e-05
3.99474e-05
3.99475e-05
3.99476e-05
3.99478e-05
3.99479e-05
3.9948e-05
3.9948e-05
3.99481e-05
3.99481e-05
3.99481e-05
3.99481e-05
3.99482e-05
3.99482e-05
3.99482e-05
3.99482e-05
3.99483e-05
3.99483e-05
3.99484e-05
3.99485e-05
3.99485e-05
3.99486e-05
3.99486e-05
3.99486e-05
3.99485e-05
3.99484e-05
3.99483e-05
3.99481e-05
3.99478e-05
3.99476e-05
3.99472e-05
3.99469e-05
3.99465e-05
3.99461e-05
3.99458e-05
3.99454e-05
3.99451e-05
3.99448e-05
3.99446e-05
3.99445e-05
3.99444e-05
3.99444e-05
3.99445e-05
3.99446e-05
3.99448e-05
3.9945e-05
3.99452e-05
3.99454e-05
3.99456e-05
3.99458e-05
3.99458e-05
3.99458e-05
3.99458e-05
3.99456e-05
3.99453e-05
3.99449e-05
3.99444e-05
3.99438e-05
3.99432e-05
3.99425e-05
3.99419e-05
3.99412e-05
3.99405e-05
3.99399e-05
3.99393e-05
3.99388e-05
3.99383e-05
3.9938e-05
3.99377e-05
3.99375e-05
3.99373e-05
3.99372e-05
3.99371e-05
3.99371e-05
3.99371e-05
3.99371e-05
3.99371e-05
3.99372e-05
3.99373e-05
3.99375e-05
3.99377e-05
3.9938e-05
3.99383e-05
3.99388e-05
3.99393e-05
3.99399e-05
3.99405e-05
3.99412e-05
3.99419e-05
3.99425e-05
3.99432e-05
3.99438e-05
3.99444e-05
3.99449e-05
3.99453e-05
3.99456e-05
3.99458e-05
3.99458e-05
3.99458e-05
3.99458e-05
3.99456e-05
3.99454e-05
3.99452e-05
3.9945e-05
3.99448e-05
3.99446e-05
3.99445e-05
3.99444e-05
3.99444e-05
3.99445e-05
3.99446e-05
3.99448e-05
3.99451e-05
3.99454e-05
3.99458e-05
3.99461e-05
3.99465e-05
3.99469e-05
3.99472e-05
3.99476e-05
3.99478e-05
3.99481e-05
3.99483e-05
3.99484e-05
3.99485e-05
3.99486e-05
3.99486e-05
3.99486e-05
3.99485e-05
3.99485e-05
3.99484e-05
3.99483e-05
3.99483e-05
3.99482e-05
3.99482e-05
3.99482e-05
3.99482e-05
3.99481e-05
3.99481e-05
3.99481e-05
3.99481e-05
3.9948e-05
3.9948e-05
3.99479e-05
3.99478e-05
3.99476e-05
3.99475e-05
3.99474e-05
3.99472e-05
3.99471e-05
3.9947e-05
3.99469e-05
3.99468e-05
3.99467e-05
3.99467e-05
3.99468e-05
3.99468e-05
3.9947e-05
3.99471e-05
3.99473e-05
3.99474e-05
3.99476e-05
3.99478e-05
3.99479e-05
3.9948e-05
3.9948e-05
3.9948e-05
3.99479e-05
3.99477e-05
3.99474e-05
3.99471e-05
3.99467e-05
3.99462e-05
3.99457e-05
3.99452e-05
3.99447e-05
3.99442e-05
3.99438e-05
3.99434e-05
3.99431e-05
3.99429e-05
3.99427e-05
3.99427e-05
3.99428e-05
3.9943e-05
3.99433e-05
3.99437e-05
3.99441e-05
3.99445e-05
3.99449e-05
3.99453e-05
3.99457e-05
3.99461e-05
3.99463e-05
3.99466e-05
3.99468e-05
3.99469e-05
3.9947e-05
3.9947e-05
3.9947e-05
3.9947e-05
3.9947e-05
0.000112577
0.000111121
0.000106816
9.98471e-05
9.05153e-05
7.9223e-05
6.64581e-05
5.27728e-05
3.87594e-05
2.50249e-05
1.21631e-05
7.28766e-07
-8.78824e-06
-1.59856e-05
-2.05676e-05
-2.23594e-05
-2.13156e-05
-1.75236e-05
-1.11994e-05
-2.67836e-06
7.6007e-06
1.91162e-05
3.12888e-05
4.35096e-05
5.51694e-05
6.56893e-05
7.45486e-05
8.13111e-05
8.56468e-05
8.73482e-05
8.63411e-05
8.26883e-05
7.65867e-05
6.83573e-05
5.84296e-05
4.73194e-05
3.56037e-05
2.3891e-05
1.27908e-05
2.88293e-06
-5.31192e-06
-1.13586e-05
-1.49297e-05
-1.58221e-05
-1.39676e-05
-9.43635e-06
-2.43391e-06
6.70915e-06
1.75536e-05
2.95734e-05
4.21823e-05
5.47627e-05
6.66972e-05
7.73992e-05
8.63423e-05
9.30873e-05
9.73035e-05
9.87862e-05
9.74664e-05
9.34146e-05
8.68374e-05
7.80674e-05
6.75461e-05
5.58024e-05
4.3426e-05
3.10379e-05
1.92594e-05
8.68109e-06
-1.66688e-07
-6.84025e-06
-1.10048e-05
-1.24509e-05
-1.11053e-05
-7.03392e-06
-4.39013e-07
8.3514e-06
1.88999e-05
3.06817e-05
4.31108e-05
5.55697e-05
6.74402e-05
7.81341e-05
8.7123e-05
9.39645e-05
9.83244e-05
9.99931e-05
9.88962e-05
9.50981e-05
8.87981e-05
8.03209e-05
7.01e-05
5.86553e-05
4.65678e-05
3.44495e-05
2.29134e-05
1.25424e-05
3.86025e-06
-2.69447e-06
-6.7904e-06
-8.21966e-06
-6.90807e-06
-2.91875e-06
3.5513e-06
1.21811e-05
2.25417e-05
3.41178e-05
4.63328e-05
5.85778e-05
7.0241e-05
8.07375e-05
8.95379e-05
9.61936e-05
0.000100358
0.000101802
0.000100426
9.62638e-05
8.94775e-05
8.0353e-05
6.92844e-05
5.6755e-05
4.33153e-05
2.9557e-05
1.60865e-05
3.49717e-06
-7.65677e-06
-1.68848e-05
-2.37817e-05
-2.80446e-05
-2.94867e-05
-2.80446e-05
-2.37817e-05
-1.68848e-05
-7.65677e-06
3.49717e-06
1.60865e-05
2.9557e-05
4.33153e-05
5.6755e-05
6.92844e-05
8.0353e-05
8.94775e-05
9.62638e-05
0.000100426
0.000101802
0.000100358
9.61936e-05
8.95379e-05
8.07375e-05
7.0241e-05
5.85778e-05
4.63328e-05
3.41178e-05
2.25417e-05
1.21811e-05
3.5513e-06
-2.91875e-06
-6.90807e-06
-8.21966e-06
-6.7904e-06
-2.69447e-06
3.86025e-06
1.25424e-05
2.29134e-05
3.44495e-05
4.65678e-05
5.86553e-05
7.01e-05
8.03209e-05
8.87981e-05
9.50981e-05
9.88962e-05
9.99931e-05
9.83244e-05
9.39645e-05
8.7123e-05
7.81341e-05
6.74402e-05
5.55697e-05
4.31108e-05
3.06817e-05
1.88999e-05
8.3514e-06
-4.39013e-07
-7.03392e-06
-1.11053e-05
-1.24509e-05
-1.10048e-05
-6.84025e-06
-1.66688e-07
8.68109e-06
1.92594e-05
3.10379e-05
4.3426e-05
5.58024e-05
6.75461e-05
7.80674e-05
8.68374e-05
9.34146e-05
9.74664e-05
9.87862e-05
9.73035e-05
9.30873e-05
8.63423e-05
7.73992e-05
6.66972e-05
5.47627e-05
4.21823e-05
2.95734e-05
1.75536e-05
6.70915e-06
-2.43391e-06
-9.43635e-06
-1.39676e-05
-1.58221e-05
-1.49297e-05
-1.13586e-05
-5.31192e-06
2.88293e-06
1.27908e-05
2.3891e-05
3.56037e-05
4.73194e-05
5.84296e-05
6.83573e-05
7.65867e-05
8.26883e-05
8.63411e-05
8.73482e-05
8.56468e-05
8.13111e-05
7.45486e-05
6.56893e-05
5.51694e-05
4.35096e-05
3.12888e-05
1.91162e-05
7.6007e-06
-2.67836e-06
-1.11994e-05
-1.75236e-05
-2.13156e-05
-2.23594e-05
-2.05676e-05
-1.59856e-05
-8.78824e-06
7.28766e-07
1.21631e-05
2.50249e-05
3.87594e-05
5.27728e-05
6.64581e-05
7.9223e-05
9.05153e-05
9.98471e-05
0.000106816
0.000111121
0.000458987
0.000449668
0.000422129
0.000377601
0.000318076
0.000246222
0.000165262
7.88358e-05
-9.16576e-06
-9.47731e-05
-0.000174119
-0.000243614
-0.000300114
-0.00034107
-0.000364646
-0.000369808
-0.000356384
-0.000325069
-0.000277401
-0.000215689
-0.000142911
-6.25657e-05
2.14864e-05
0.000105214
0.000184608
0.000255877
0.000315634
0.000361064
0.000390059
0.000401327
0.000394455
0.000369926
0.000329102
0.000274149
0.000207933
0.000133877
5.57878e-05
-2.23332e-05
-9.64906e-05
-0.000162895
-0.000218151
-0.000259432
-0.000284614
-0.00029239
-0.000282328
-0.0002549
-0.00021145
-0.000154133
-8.58034e-05
-9.87286e-06
6.98599e-05
0.0001494
0.000224757
0.000292144
0.000348165
0.000389991
0.000415495
0.00042336
0.00041315
0.000385326
0.000341225
0.000282996
0.000213491
0.000136121
5.46924e-05
-2.67892e-05
-0.000104315
-0.000174072
-0.000232636
-0.000277138
-0.000305411
-0.000316095
-0.000308704
-0.000283654
-0.000242235
-0.000186556
-0.00011943
-4.42395e-05
3.52325e-05
0.000114994
0.000191043
0.000259562
0.000317116
0.000360819
0.000388477
0.000398702
0.000390977
0.000365684
0.000324084
0.000268254
0.000200984
0.000125639
4.59882e-05
-3.39787e-05
-0.000110253
-0.000179004
-0.000236772
-0.000280635
-0.000308361
-0.000318509
-0.000310508
-0.00028468
-0.000242224
-0.000185158
-0.000116217
-3.87202e-05
4.35937e-05
0.000126748
0.000206724
0.000279651
0.000341998
0.000390739
0.000423497
0.000438656
0.000435434
0.000413918
0.000375055
0.000320604
0.000253049
0.000175483
9.14578e-05
4.82046e-06
-8.04661e-05
-0.000160505
-0.000231645
-0.000290642
-0.000334811
-0.000362142
-0.000371392
-0.000362142
-0.000334811
-0.000290642
-0.000231645
-0.000160505
-8.04661e-05
4.82046e-06
9.14578e-05
0.000175483
0.000253049
0.000320604
0.000375055
0.000413918
0.000435434
0.000438656
0.000423497
0.000390739
0.000341998
0.000279651
0.000206724
0.000126748
4.35937e-05
-3.87202e-05
-0.000116217
-0.000185158
-0.000242224
-0.00028468
-0.000310508
-0.000318509
-0.000308361
-0.000280635
-0.000236772
-0.000179004
-0.000110253
-3.39787e-05
4.59882e-05
0.000125639
0.000200984
0.000268254
0.000324084
0.000365684
0.000390977
0.000398702
0.000388477
0.000360819
0.000317116
0.000259562
0.000191043
0.000114994
3.52325e-05
-4.42395e-05
-0.00011943
-0.000186556
-0.000242235
-0.000283654
-0.000308704
-0.000316095
-0.000305411
-0.000277138
-0.000232636
-0.000174072
-0.000104315
-2.67892e-05
5.46924e-05
0.000136121
0.000213491
0.000282996
0.000341225
0.000385326
0.00041315
0.00042336
0.000415495
0.000389991
0.000348165
0.000292144
0.000224757
0.0001494
6.98599e-05
-9.87286e-06
-8.58034e-05
-0.000154133
-0.00021145
-0.0002549
-0.000282328
-0.00029239
-0.000284614
-0.000259432
-0.000218151
-0.000162895
-9.64906e-05
-2.23332e-05
5.57878e-05
0.000133877
0.000207933
0.000274149
0.000329102
0.000369926
0.000394455
0.000401327
0.000390059
0.000361064
0.000315634
0.000255877
0.000184608
0.000105214
2.14864e-05
-6.25657e-05
-0.000142911
-0.000215689
-0.000277401
-0.000325069
-0.000356384
-0.000369808
-0.000364646
-0.00034107
-0.000300114
-0.000243614
-0.000174119
-9.47731e-05
-9.16576e-06
7.88358e-05
0.000165262
0.000246222
0.000318076
0.000377601
0.000422129
0.000449668
0.00152002
0.00148531
0.00138275
0.00121707
0.000995893
0.000729405
0.00042992
0.000111314
-0.000211603
-0.000523762
-0.000810529
-0.00105839
-0.0012556
-0.00139272
-0.00146312
-0.00146328
-0.00139301
-0.00125545
-0.00105699
-0.00080691
-0.000517034
-0.000201105
0.000125846
0.00044823
0.000750662
0.00101871
0.00123961
0.00140288
0.00150087
0.0015291
0.0014865
0.00137549
0.00120182
0.000974293
0.000704355
0.0004055
9.26155e-05
-0.000218762
-0.000513209
-0.000776184
-0.000994742
-0.00115817
-0.00125852
-0.001291
-0.00125418
-0.00115009
-0.000984106
-0.000764666
-0.000502849
-0.00021183
9.37827e-05
0.000398672
0.000687574
0.000946034
0.00116112
0.00132208
0.00142084
0.00145243
0.00141521
0.00131099
0.00114487
0.000925035
0.000662341
0.000369764
6.17616e-05
-0.000246442
-0.000539613
-0.000803264
-0.00102437
-0.00119201
-0.00129793
-0.00133691
-0.00130707
-0.00120993
-0.00105036
-0.00083632
-0.000578482
-0.000289693
1.56533e-05
0.000322333
0.000615044
0.000879164
0.00110147
0.00127081
0.00137864
0.00141945
0.00139105
0.00129468
0.00113495
0.000919585
0.000659113
0.000366286
5.54778e-05
-0.000258027
-0.00055879
-0.000831974
-0.00106408
-0.00124361
-0.00136164
-0.00141224
-0.00139277
-0.00130403
-0.0011502
-0.000938608
-0.000679416
-0.000385083
-6.97639e-05
0.000251383
0.000562936
0.00084996
0.00109873
0.00129737
0.00143645
0.00150942
0.00151286
0.00144673
0.00131423
0.00112176
0.000878478
0.000595957
0.000287561
-3.21627e-05
-0.000348175
-0.000645645
-0.000910646
-0.00113079
-0.0012958
-0.00139799
-0.00143258
-0.00139799
-0.0012958
-0.00113079
-0.000910646
-0.000645645
-0.000348175
-3.21627e-05
0.000287561
0.000595957
0.000878478
0.00112176
0.00131423
0.00144673
0.00151286
0.00150942
0.00143645
0.00129737
0.00109873
0.00084996
0.000562936
0.000251383
-6.97639e-05
-0.000385083
-0.000679416
-0.000938608
-0.0011502
-0.00130403
-0.00139277
-0.00141224
-0.00136164
-0.00124361
-0.00106408
-0.000831974
-0.00055879
-0.000258027
5.54778e-05
0.000366286
0.000659113
0.000919585
0.00113495
0.00129468
0.00139105
0.00141945
0.00137864
0.00127081
0.00110147
0.000879164
0.000615044
0.000322333
1.56533e-05
-0.000289693
-0.000578482
-0.00083632
-0.00105036
-0.00120993
-0.00130707
-0.00133691
-0.00129793
-0.00119201
-0.00102437
-0.000803264
-0.000539613
-0.000246442
6.17616e-05
0.000369764
0.000662341
0.000925035
0.00114487
0.00131099
0.00141521
0.00145243
0.00142084
0.00132208
0.00116112
0.000946034
0.000687574
0.000398672
9.37827e-05
-0.00021183
-0.000502849
-0.000764666
-0.000984106
-0.00115009
-0.00125418
-0.001291
-0.00125852
-0.00115817
-0.000994742
-0.000776184
-0.000513209
-0.000218762
9.26155e-05
0.0004055
0.000704355
0.000974293
0.00120182
0.00137549
0.0014865
0.0015291
0.00150087
0.00140288
0.00123961
0.00101871
0.000750662
0.00044823
0.000125846
-0.000201105
-0.000517034
-0.00080691
-0.00105699
-0.00125545
-0.00139301
-0.00146328
-0.00146312
-0.00139272
-0.0012556
-0.00105839
-0.000810529
-0.000523762
-0.000211603
0.000111314
0.00042992
0.000729405
0.000995893
0.00121707
0.00138275
0.00148531
0.00433496
0.0042307
0.00392285
0.00342602
0.00276382
0.00196774
0.00107578
0.000130607
-0.000822383
-0.00173724
-0.00256964
-0.00327901
-0.00383054
-0.00419686
-0.00435948
-0.00430966
-0.00404897
-0.00358922
-0.00295197
-0.00216747
-0.00127325
-0.000312288
0.00066909
0.00162347
0.00250469
0.0032701
0.00388264
0.00431269
0.00453953
0.00455232
0.00435066
0.00394459
0.0033541
0.00260813
0.00174317
0.000801425
-0.000171205
-0.0011274
-0.00202073
-0.00280792
-0.00345092
-0.00391882
-0.00418929
-0.00424968
-0.0040976
-0.00374104
-0.00319795
-0.00249535
-0.00166802
-0.000756739
0.000193659
0.0011365
0.00202556
0.0028173
0.003473
0.00396062
0.0042564
0.00434597
0.00422505
0.00389969
0.0033859
0.00270891
0.00190193
0.00100452
6.06158e-05
-0.00088354
-0.00178172
-0.00258994
-0.00326861
-0.00378449
-0.00411228
-0.00423587
-0.00414914
-0.00385625
-0.00337145
-0.00271838
-0.00192894
-0.0010417
-0.00010007
0.000849863
0.00176155
0.00259025
0.00329527
0.00384187
0.00420303
0.00436077
0.00430701
0.00404399
0.00358417
0.00294964
0.00217104
0.00128608
0.000337687
-0.000628064
-0.00156421
-0.0024252
-0.00316909
-0.00375966
-0.00416811
-0.00437452
-0.00436881
-0.00415124
-0.00373238
-0.0031326
-0.00238106
-0.0015143
-0.000574403
0.000393021
0.00134111
0.00222401
0.00299914
0.00362923
0.00408415
0.00434233
0.00439179
0.00423068
0.00386735
0.00331987
0.00261515
0.00178757
0.000877332
-7.15118e-05
-0.00101319
-0.00190238
-0.0026964
-0.00335718
-0.0038531
-0.00416045
-0.00426456
-0.00416045
-0.0038531
-0.00335718
-0.0026964
-0.00190238
-0.00101319
-7.15118e-05
0.000877332
0.00178757
0.00261515
0.00331987
0.00386735
0.00423068
0.00439179
0.00434233
0.00408415
0.00362923
0.00299914
0.00222401
0.00134111
0.000393021
-0.000574403
-0.0015143
-0.00238106
-0.0031326
-0.00373238
-0.00415124
-0.00436881
-0.00437452
-0.00416811
-0.00375966
-0.00316909
-0.0024252
-0.00156421
-0.000628064
0.000337687
0.00128608
0.00217104
0.00294964
0.00358417
0.00404399
0.00430701
0.00436077
0.00420303
0.00384187
0.00329527
0.00259025
0.00176155
0.000849863
-0.00010007
-0.0010417
-0.00192894
-0.00271838
-0.00337145
-0.00385625
-0.00414914
-0.00423587
-0.00411228
-0.00378449
-0.00326861
-0.00258994
-0.00178172
-0.00088354
6.06158e-05
0.00100452
0.00190193
0.00270891
0.0033859
0.00389969
0.00422505
0.00434597
0.0042564
0.00396062
0.003473
0.0028173
0.00202556
0.0011365
0.000193659
-0.000756739
-0.00166802
-0.00249535
-0.00319795
-0.00374104
-0.0040976
-0.00424968
-0.00418929
-0.00391882
-0.00345092
-0.00280792
-0.00202073
-0.0011274
-0.000171205
0.000801425
0.00174317
0.00260813
0.0033541
0.00394459
0.00435066
0.00455232
0.00453953
0.00431269
0.00388264
0.0032701
0.00250469
0.00162347
0.00066909
-0.000312288
-0.00127325
-0.00216747
-0.00295197
-0.00358922
-0.00404897
-0.00430966
-0.00435948
-0.00419686
-0.00383054
-0.00327901
-0.00256964
-0.00173724
-0.000822383
0.000130607
0.00107578
0.00196774
0.00276382
0.00342602
0.00392285
0.0042307
0.0111544
0.0108775
0.0100606
0.00874431
0.00699383
0.00489611
0.00255524
8.74133e-05
-0.00238492
-0.00473911
-0.00685837
-0.00863764
-0.00998872
-0.0108447
-0.0111632
-0.0109285
-0.010152
-0.00887215
-0.00715179
-0.00507551
-0.00274523
-0.000275125
0.00221399
0.00460058
0.00676838
0.00861201
0.0100421
0.0109897
0.0114092
0.0112811
0.0106121
0.00943554
0.00780892
0.00581163
0.00354078
0.00110657
-0.00137311
-0.00377833
-0.00599291
-0.00791003
-0.00943734
-0.0105014
-0.011051
-0.01106
-0.0105282
-0.00948127
-0.00796988
-0.00606689
-0.003864
-0.00146727
0.00100791
0.0034424
0.00571904
0.00772821
0.00937311
0.0105744
0.0112741
0.011438
0.0110578
0.0101511
0.00876095
0.0069533
0.00481425
0.00244575
-3.92225e-05
-0.00252209
-0.00488436
-0.00701325
-0.00880714
-0.0101804
-0.0110676
-0.0114263
-0.0112397
-0.0105169
-0.00929258
-0.00762567
-0.00559619
-0.00330152
-0.00085181
0.00163536
0.00404058
0.00624839
0.00815274
0.00966216
0.0107041
0.0112286
0.0112104
0.0106505
0.0095759
0.00803848
0.00611247
0.00389092
0.00148122
-0.00100006
-0.00343278
-0.00569901
-0.00768878
-0.0093054
-0.0104701
-0.0111262
-0.0112412
-0.0108093
-0.00985119
-0.00841312
-0.0065649
-0.00439646
-0.00201347
0.000467745
0.0029259
0.00524068
0.00729864
0.00899879
0.0102576
0.0110132
0.0112282
0.0108922
0.0100214
0.0086589
0.00687166
0.00474786
0.00239227
-7.88445e-05
-0.00254348
-0.0048799
-0.00697271
-0.0087185
-0.010031
-0.0108454
-0.0111214
-0.0108454
-0.010031
-0.0087185
-0.00697271
-0.0048799
-0.00254348
-7.88445e-05
0.00239227
0.00474786
0.00687166
0.0086589
0.0100214
0.0108922
0.0112282
0.0110132
0.0102576
0.00899879
0.00729864
0.00524068
0.0029259
0.000467745
-0.00201347
-0.00439646
-0.0065649
-0.00841312
-0.00985119
-0.0108093
-0.0112412
-0.0111262
-0.0104701
-0.0093054
-0.00768878
-0.00569901
-0.00343278
-0.00100006
0.00148122
0.00389092
0.00611247
0.00803848
0.0095759
0.0106505
0.0112104
0.0112286
0.0107041
0.00966216
0.00815274
0.00624839
0.00404058
0.00163536
-0.00085181
-0.00330152
-0.00559619
-0.00762567
-0.00929258
-0.0105169
-0.0112397
-0.0114263
-0.0110676
-0.0101804
-0.00880714
-0.00701325
-0.00488436
-0.00252209
-3.92225e-05
0.00244575
0.00481425
0.0069533
0.00876095
0.0101511
0.0110578
0.011438
0.0112741
0.0105744
0.00937311
0.00772821
0.00571904
0.0034424
0.00100791
-0.00146727
-0.003864
-0.00606689
-0.00796988
-0.00948127
-0.0105282
-0.01106
-0.011051
-0.0105014
-0.00943734
-0.00791003
-0.00599291
-0.00377833
-0.00137311
0.00110657
0.00354078
0.00581163
0.00780892
0.00943554
0.0106121
0.0112811
0.0114092
0.0109897
0.0100421
0.00861201
0.00676838
0.00460058
0.00221399
-0.000275125
-0.00274523
-0.00507551
-0.00715179
-0.00887215
-0.010152
-0.0109285
-0.0111632
-0.0108447
-0.00998872
-0.00863764
-0.00685837
-0.00473911
-0.00238492
8.74133e-05
0.00255524
0.00489611
0.00699383
0.00874431
0.0100606
0.0108775
0.017765
0.0173306
0.0160486
0.0139818
0.0112316
0.0079327
0.00424658
0.00035375
-0.00355534
-0.00728955
-0.0106665
-0.0135212
-0.0157147
-0.0171401
-0.0177283
-0.0174509
-0.0163217
-0.0143959
-0.0117672
-0.00856337
-0.00493981
-0.00107203
0.00285283
0.00664516
0.0101219
0.0131155
0.0154818
0.0171071
0.0179135
0.0178625
0.0169572
0.0152417
0.0127992
0.00974796
0.00623568
0.00243221
-0.0014785
-0.00530728
-0.00886887
-0.0119909
-0.0145221
-0.0163398
-0.017356
-0.0175212
-0.0168274
-0.0153082
-0.0130374
-0.0101251
-0.00671318
-0.00296753
0.000929378
0.00478759
0.00841884
0.0116458
0.0143106
0.0162827
0.0174653
0.0177998
0.0172692
0.0158983
0.0137533
0.010938
0.00758884
0.00386858
-4.20045e-05
-0.00395275
-0.00767345
-0.0110231
-0.0138389
-0.0159838
-0.0173538
-0.0178823
-0.0175439
-0.0163554
-0.014375
-0.0116993
-0.00845869
-0.00481104
-0.000933828
0.00298441
0.0067533
0.0101899
0.0131274
0.0154237
0.0169675
0.0176846
0.0175406
0.0165429
0.0147406
0.0122214
0.00910798
0.00555148
0.00172455
-0.00218718
-0.00599408
-0.00951164
-0.0125694
-0.0150193
-0.0167424
-0.0176553
-0.0177136
-0.0169142
-0.0152957
-0.0129361
-0.00994947
-0.00648035
-0.00269665
0.00121835
0.00507485
0.00868575
0.0118757
0.0144897
0.0164004
0.0175148
0.0177784
0.017178
0.0157425
0.0135416
0.0106823
0.00730368
0.00357046
-0.000335363
-0.00422325
-0.00790342
-0.0111962
-0.0139407
-0.0160028
-0.0172819
-0.0177153
-0.0172819
-0.0160028
-0.0139407
-0.0111962
-0.00790342
-0.00422325
-0.000335363
0.00357046
0.00730368
0.0106823
0.0135416
0.0157425
0.017178
0.0177784
0.0175148
0.0164004
0.0144897
0.0118757
0.00868575
0.00507485
0.00121835
-0.00269665
-0.00648035
-0.00994947
-0.0129361
-0.0152957
-0.0169142
-0.0177136
-0.0176553
-0.0167424
-0.0150193
-0.0125694
-0.00951164
-0.00599408